
     Program PWSCF v.7.5 starts on  1Mar2026 at 12:47:49 

     This program is part of the open-source Quantum ESPRESSO suite
     for quantum simulation of materials; please cite
         "P. Giannozzi et al., J. Phys.:Condens. Matter 21 395502 (2009);
         "P. Giannozzi et al., J. Phys.:Condens. Matter 29 465901 (2017);
         "P. Giannozzi et al., J. Chem. Phys. 152 154105 (2020);
          URL http://www.quantum-espresso.org", 
     in publications or presentations arising from this work. More details at
     http://www.quantum-espresso.org/quote

     Parallel version (MPI), running on     4 processors

     MPI processes distributed on     1 nodes
     473408 MiB available memory on the printing compute node when the environment starts
 
     Waiting for input...
     Reading input from standard input

     Current dimensions of program PWSCF are:
     Max number of different atomic species (ntypx) = 10
     Max number of k-points (npk) =  40000
     Max angular momentum in pseudopotentials (lmaxx) =  4
     Message from routine setup:
     using ibrav=0 with symmetry is DISCOURAGED, use correct ibrav instead
 
     R & G space division:  proc/nbgrp/npool/nimage =       4
     Subspace diagonalization in iterative solution of the eigenvalue problem:
     a serial algorithm will be used

 
     Parallelization info
     --------------------
     sticks:   dense  smooth     PW     G-vecs:    dense   smooth      PW
     Min         486     486    139                14249    14249    2163
     Max         487     487    140                14254    14254    2165
     Sum        1945    1945    559                57001    57001    8657
 
     Using Slab Decomposition
 


     bravais-lattice index     =            0
     lattice parameter (alat)  =      10.8700  a.u.
     unit-cell volume          =     321.0914 (a.u.)^3
     number of atoms/cell      =            2
     number of atomic types    =            1
     number of electrons       =        28.00
     number of Kohn-Sham states=           16
     kinetic-energy cutoff     =     120.0000  Ry
     charge density cutoff     =     480.0000  Ry
     scf convergence threshold =      1.0E-06
     mixing beta               =       0.7000
     number of iterations used =            8  plain     mixing
     Exchange-correlation=  SLA  PW   PBX  PBC
                           (   1   4   3   4   0   0   0)

     celldm(1)=  10.870000  celldm(2)=   0.000000  celldm(3)=   0.000000
     celldm(4)=   0.000000  celldm(5)=   0.000000  celldm(6)=   0.000000

     crystal axes: (cart. coord. in units of alat)
               a(1) = (   0.000000   0.500000   0.500000 )  
               a(2) = (   0.500000   0.000000   0.500000 )  
               a(3) = (   0.500000   0.500000   0.000000 )  

     reciprocal axes: (cart. coord. in units 2 pi/alat)
               b(1) = ( -1.000000  1.000000  1.000000 )  
               b(2) = (  1.000000 -1.000000  1.000000 )  
               b(3) = (  1.000000  1.000000 -1.000000 )  


     PseudoPot. # 1 for Ge read from file:
     ./ge_pbe_v1.4.uspp.F.UPF
     MD5 check sum: 9c9eaa91e581c3f09632fb3098b2c6b2
     Pseudo is Ultrasoft + core correction, Zval = 14.0
     Generated by new atomic code, or converted to UPF format
     Using radial grid of  873 points,  6 beta functions with: 
                l(1) =   0
                l(2) =   0
                l(3) =   1
                l(4) =   1
                l(5) =   2
                l(6) =   2
     Q(r) pseudized with  8 coefficients,  rinner =    1.400   1.400   1.400
                                                       1.400   1.400

     atomic species   valence    mass     pseudopotential
     Ge               14.00    72.63000     Ge( 1.00)

     48 Sym. Ops., with inversion, found (24 have fractional translation)



   Cartesian axes

     site n.     atom                  positions (alat units)
         1        Ge     tau(   1) = (   0.0000000   0.0000000   0.0000000  )
         2        Ge     tau(   2) = (   0.2500000   0.2500000   0.2500000  )

     number of k points=    72  Gaussian smearing, width (Ry)=  0.0020
                       cart. coord. in units 2pi/alat
        k(    1) = (   0.0000000   0.0000000   0.0000000), wk =   0.0011574
        k(    2) = (   0.0833333   0.0833333  -0.0833333), wk =   0.0092593
        k(    3) = (   0.1666667   0.1666667  -0.1666667), wk =   0.0092593
        k(    4) = (   0.2500000   0.2500000  -0.2500000), wk =   0.0092593
        k(    5) = (   0.3333333   0.3333333  -0.3333333), wk =   0.0092593
        k(    6) = (   0.4166667   0.4166667  -0.4166667), wk =   0.0092593
        k(    7) = (  -0.5000000  -0.5000000   0.5000000), wk =   0.0046296
        k(    8) = (   0.1666667   0.0000000   0.0000000), wk =   0.0069444
        k(    9) = (   0.2500000   0.0833333  -0.0833333), wk =   0.0277778
        k(   10) = (   0.3333333   0.1666667  -0.1666667), wk =   0.0277778
        k(   11) = (   0.4166667   0.2500000  -0.2500000), wk =   0.0277778
        k(   12) = (   0.5000000   0.3333333  -0.3333333), wk =   0.0277778
        k(   13) = (  -0.4166667  -0.5833333   0.5833333), wk =   0.0277778
        k(   14) = (  -0.3333333  -0.5000000   0.5000000), wk =   0.0277778
        k(   15) = (  -0.2500000  -0.4166667   0.4166667), wk =   0.0277778
        k(   16) = (  -0.1666667  -0.3333333   0.3333333), wk =   0.0277778
        k(   17) = (  -0.0833333  -0.2500000   0.2500000), wk =   0.0277778
        k(   18) = (  -0.0000000  -0.1666667   0.1666667), wk =   0.0138889
        k(   19) = (   0.3333333   0.0000000   0.0000000), wk =   0.0069444
        k(   20) = (   0.4166667   0.0833333  -0.0833333), wk =   0.0277778
        k(   21) = (   0.5000000   0.1666667  -0.1666667), wk =   0.0277778
        k(   22) = (   0.5833333   0.2500000  -0.2500000), wk =   0.0277778
        k(   23) = (  -0.3333333  -0.6666667   0.6666667), wk =   0.0277778
        k(   24) = (  -0.2500000  -0.5833333   0.5833333), wk =   0.0277778
        k(   25) = (  -0.1666667  -0.5000000   0.5000000), wk =   0.0277778
        k(   26) = (  -0.0833333  -0.4166667   0.4166667), wk =   0.0277778
        k(   27) = (  -0.0000000  -0.3333333   0.3333333), wk =   0.0138889
        k(   28) = (   0.5000000   0.0000000   0.0000000), wk =   0.0069444
        k(   29) = (   0.5833333   0.0833333  -0.0833333), wk =   0.0277778
        k(   30) = (   0.6666667   0.1666667  -0.1666667), wk =   0.0277778
        k(   31) = (  -0.2500000  -0.7500000   0.7500000), wk =   0.0277778
        k(   32) = (  -0.1666667  -0.6666667   0.6666667), wk =   0.0277778
        k(   33) = (  -0.0833333  -0.5833333   0.5833333), wk =   0.0277778
        k(   34) = (   0.0000000  -0.5000000   0.5000000), wk =   0.0138889
        k(   35) = (   0.6666667   0.0000000   0.0000000), wk =   0.0069444
        k(   36) = (   0.7500000   0.0833333  -0.0833333), wk =   0.0277778
        k(   37) = (  -0.1666667  -0.8333333   0.8333333), wk =   0.0277778
        k(   38) = (  -0.0833333  -0.7500000   0.7500000), wk =   0.0277778
        k(   39) = (  -0.0000000  -0.6666667   0.6666667), wk =   0.0138889
        k(   40) = (   0.8333333   0.0000000   0.0000000), wk =   0.0069444
        k(   41) = (  -0.0833333  -0.9166667   0.9166667), wk =   0.0277778
        k(   42) = (  -0.0000000  -0.8333333   0.8333333), wk =   0.0138889
        k(   43) = (  -1.0000000   0.0000000   0.0000000), wk =   0.0034722
        k(   44) = (   0.3333333   0.1666667   0.0000000), wk =   0.0277778
        k(   45) = (   0.4166667   0.2500000  -0.0833333), wk =   0.0555556
        k(   46) = (   0.5000000   0.3333333  -0.1666667), wk =   0.0555556
        k(   47) = (  -0.4166667  -0.5833333   0.7500000), wk =   0.0555556
        k(   48) = (  -0.3333333  -0.5000000   0.6666667), wk =   0.0277778
        k(   49) = (   0.5000000   0.1666667   0.0000000), wk =   0.0277778
        k(   50) = (   0.5833333   0.2500000  -0.0833333), wk =   0.0555556
        k(   51) = (  -0.3333333  -0.6666667   0.8333333), wk =   0.0555556
        k(   52) = (  -0.2500000  -0.5833333   0.7500000), wk =   0.0555556
        k(   53) = (  -0.1666667  -0.5000000   0.6666667), wk =   0.0555556
        k(   54) = (  -0.0833333  -0.4166667   0.5833333), wk =   0.0555556
        k(   55) = (  -0.0000000  -0.3333333   0.5000000), wk =   0.0277778
        k(   56) = (   0.6666667   0.1666667   0.0000000), wk =   0.0277778
        k(   57) = (  -0.2500000  -0.7500000   0.9166667), wk =   0.0555556
        k(   58) = (  -0.1666667  -0.6666667   0.8333333), wk =   0.0555556
        k(   59) = (  -0.0833333  -0.5833333   0.7500000), wk =   0.0555556
        k(   60) = (   0.0000000  -0.5000000   0.6666667), wk =   0.0277778
        k(   61) = (  -0.1666667  -0.8333333   1.0000000), wk =   0.0277778
        k(   62) = (  -0.0833333  -0.7500000   0.9166667), wk =   0.0555556
        k(   63) = (  -0.0000000  -0.6666667   0.8333333), wk =   0.0277778
        k(   64) = (  -1.0000000   0.1666667   0.0000000), wk =   0.0138889
        k(   65) = (  -0.3333333  -0.6666667   1.0000000), wk =   0.0277778
        k(   66) = (  -0.2500000  -0.5833333   0.9166667), wk =   0.0555556
        k(   67) = (  -0.1666667  -0.5000000   0.8333333), wk =   0.0277778
        k(   68) = (  -0.1666667  -0.6666667   1.0000000), wk =   0.0277778
        k(   69) = (  -0.0833333  -0.5833333   0.9166667), wk =   0.0555556
        k(   70) = (  -0.0000000  -0.5000000   0.8333333), wk =   0.0277778
        k(   71) = (  -1.0000000   0.3333333   0.0000000), wk =   0.0138889
        k(   72) = (  -1.0000000   0.5000000   0.0000000), wk =   0.0069444

     Dense  grid:    57001 G-vectors     FFT dimensions: (  60,  60,  60)

     Estimated max dynamical RAM per process >      87.85 MB

     Estimated total dynamical RAM >     351.39 MB

     Check: negative core charge=   -0.000001

     Initial potential from superposition of free atoms

     starting charge      27.9983, renormalised to      28.0000
     Starting wfcs are   18 randomized atomic wfcs

     total cpu time spent up to now is        1.9 secs

     Self-consistent Calculation

     iteration #  1     ecut=   120.00 Ry     beta= 0.70
     Davidson diagonalization with overlap
     ethr =  1.00E-02,  avg # of iterations =  2.4

     Threshold (ethr) on eigenvalues was too large:
     Diagonalizing with lowered threshold

     Davidson diagonalization with overlap
     ethr =  1.04E-04,  avg # of iterations =  3.0

     total cpu time spent up to now is       10.2 secs

     total energy              =    -427.30267604 Ry
     estimated scf accuracy    <       0.03137300 Ry

     iteration #  2     ecut=   120.00 Ry     beta= 0.70
     Davidson diagonalization with overlap
     ethr =  1.12E-04,  avg # of iterations =  1.0

     total cpu time spent up to now is       13.8 secs

     total energy              =    -427.30348104 Ry
     estimated scf accuracy    <       0.00178606 Ry

     iteration #  3     ecut=   120.00 Ry     beta= 0.70
     Davidson diagonalization with overlap
     ethr =  6.38E-06,  avg # of iterations =  2.8

     total cpu time spent up to now is       18.0 secs

     total energy              =    -427.30357366 Ry
     estimated scf accuracy    <       0.00002557 Ry

     iteration #  4     ecut=   120.00 Ry     beta= 0.70
     Davidson diagonalization with overlap
     ethr =  9.13E-08,  avg # of iterations =  2.7

     total cpu time spent up to now is       23.1 secs

     total energy              =    -427.30358455 Ry
     estimated scf accuracy    <       0.00000276 Ry

     iteration #  5     ecut=   120.00 Ry     beta= 0.70
     Davidson diagonalization with overlap
     ethr =  9.85E-09,  avg # of iterations =  2.0

     total cpu time spent up to now is       28.0 secs

     End of self-consistent calculation

          k = 0.0000 0.0000 0.0000 (  7119 PWs)   bands (ev):

   -16.9131 -16.9131 -16.9131 -16.8813 -16.8813 -16.6954 -16.6954 -16.6954
   -16.6865 -16.6865  -4.5759   7.4133   7.8275   7.8275   7.8275  10.3575

          k = 0.0833 0.0833-0.0833 (  7138 PWs)   bands (ev):

   -16.9168 -16.9168 -16.9121 -16.8762 -16.8762 -16.7022 -16.7022 -16.6966
   -16.6804 -16.6804  -4.4949   6.1570   7.6722   7.6722   8.5532  10.5692

          k = 0.1667 0.1667-0.1667 (  7147 PWs)   bands (ev):

   -16.9235 -16.9235 -16.9093 -16.8662 -16.8662 -16.7117 -16.7117 -16.6998
   -16.6728 -16.6728  -4.2554   4.6284   7.3384   7.3384   8.5958  11.0122

          k = 0.2500 0.2500-0.2500 (  7147 PWs)   bands (ev):

   -16.9291 -16.9291 -16.9054 -16.8564 -16.8564 -16.7196 -16.7196 -16.7043
   -16.6670 -16.6670  -3.8695   3.1658   6.9965   6.9965   8.3365  11.3935

          k = 0.3333 0.3333-0.3333 (  7150 PWs)   bands (ev):

   -16.9326 -16.9326 -16.9014 -16.8493 -16.8493 -16.7248 -16.7248 -16.7089
   -16.6632 -16.6632  -3.3712   1.8691   6.7254   6.7254   8.0851  11.5514

          k = 0.4167 0.4167-0.4167 (  7141 PWs)   bands (ev):

   -16.9343 -16.9343 -16.8984 -16.8456 -16.8456 -16.7274 -16.7274 -16.7123
   -16.6612 -16.6612  -2.8599   0.8689   6.5554   6.5554   7.9205  11.5576

          k =-0.5000-0.5000 0.5000 (  7144 PWs)   bands (ev):

   -16.9348 -16.9348 -16.8973 -16.8445 -16.8445 -16.7280 -16.7280 -16.7136
   -16.6606 -16.6606  -2.6053   0.4498   6.4978   6.4978   7.8641  11.5430

          k = 0.1667 0.0000 0.0000 (  7143 PWs)   bands (ev):

   -16.9170 -16.9155 -16.9155 -16.8778 -16.8710 -16.7132 -16.6919 -16.6919
   -16.6897 -16.6763  -4.4678   6.0681   7.3929   7.3929   9.1260  10.0373

          k = 0.2500 0.0833-0.0833 (  7136 PWs)   bands (ev):

   -16.9241 -16.9200 -16.9130 -16.8710 -16.8603 -16.7250 -16.7007 -16.6918
   -16.6814 -16.6705  -4.2804   4.9310   7.0168   7.0684   9.4383  10.1091

          k = 0.3333 0.1667-0.1667 (  7145 PWs)   bands (ev):

   -16.9314 -16.9257 -16.9075 -16.8615 -16.8495 -16.7345 -16.7102 -16.6968
   -16.6734 -16.6639  -3.9413   3.5551   6.6688   6.6804   9.2277  10.6377

          k = 0.4167 0.2500-0.2500 (  7149 PWs)   bands (ev):

   -16.9368 -16.9303 -16.9009 -16.8529 -16.8418 -16.7399 -16.7182 -16.7042
   -16.6673 -16.6585  -3.4743   2.2449   6.2790   6.4432   8.9540  11.0820

          k = 0.5000 0.3333-0.3333 (  7144 PWs)   bands (ev):

   -16.9399 -16.9336 -16.8947 -16.8462 -16.8388 -16.7399 -16.7249 -16.7119
   -16.6627 -16.6554  -2.9477   1.1490   5.9719   6.3278   8.7412  11.2772

          k =-0.4167-0.5833 0.5833 (  7132 PWs)   bands (ev):

   -16.9407 -16.9358 -16.8908 -16.8414 -16.8402 -16.7351 -16.7305 -16.7179
   -16.6595 -16.6547  -2.5635   0.5014   5.7765   6.3396   8.6260  11.3795

          k =-0.3333-0.5000 0.5000 (  7130 PWs)   bands (ev):

   -16.9395 -16.9369 -16.8905 -16.8441 -16.8388 -16.7344 -16.7282 -16.7200
   -16.6577 -16.6565  -2.6547   0.6465   5.7076   6.4742   8.6197  11.5076

          k =-0.2500-0.4167 0.4167 (  7145 PWs)   bands (ev):

   -16.9367 -16.9363 -16.8942 -16.8493 -16.8398 -16.7355 -16.7248 -16.7135
   -16.6609 -16.6578  -3.1234   1.4833   5.7755   6.7182   8.7202  11.5958

          k =-0.1667-0.3333 0.3333 (  7153 PWs)   bands (ev):

   -16.9344 -16.9313 -16.9005 -16.8559 -16.8454 -16.7320 -16.7215 -16.7032
   -16.6677 -16.6600  -3.6429   2.6657   5.9902   7.0458   8.9066  11.3576

          k =-0.0833-0.2500 0.2500 (  7147 PWs)   bands (ev):

   -16.9298 -16.9246 -16.9071 -16.8640 -16.8553 -16.7242 -16.7156 -16.6936
   -16.6766 -16.6647  -4.0711   3.9983   6.3681   7.4028   9.1020  10.9657

          k =-0.0000-0.1667 0.1667 (  7143 PWs)   bands (ev):

   -16.9232 -16.9180 -16.9119 -16.8723 -16.8669 -16.7137 -16.7077 -16.6884
   -16.6849 -16.6716  -4.3609   5.2856   6.9564   7.6710   9.0272  10.6010

          k = 0.3333 0.0000 0.0000 (  7123 PWs)   bands (ev):

   -16.9216 -16.9216 -16.9206 -16.8676 -16.8487 -16.7406 -16.6990 -16.6827
   -16.6827 -16.6711  -4.1451   4.5603   6.6202   6.6202   9.4265  10.2851

          k = 0.4167 0.0833-0.0833 (  7131 PWs)   bands (ev):

   -16.9307 -16.9262 -16.9137 -16.8593 -16.8361 -16.7540 -16.7078 -16.6849
   -16.6752 -16.6655  -3.8548   3.5973   6.1767   6.2745   9.4420  10.4294

          k = 0.5000 0.1667-0.1667 (  7141 PWs)   bands (ev):

   -16.9393 -16.9309 -16.9034 -16.8497 -16.8264 -16.7629 -16.7180 -16.6955
   -16.6677 -16.6566  -3.4262   2.4582   5.6529   6.0378   9.5561  10.7600

          k = 0.5833 0.2500-0.2500 (  7126 PWs)   bands (ev):

   -16.9457 -16.9348 -16.8921 -16.8407 -16.8225 -16.7647 -16.7278 -16.7079
   -16.6615 -16.6496  -2.9051   1.3849   5.1900   5.9341   9.4467  11.2963

          k =-0.3333-0.6667 0.6667 (  7112 PWs)   bands (ev):

   -16.9492 -16.9379 -16.8826 -16.8330 -16.8256 -16.7588 -16.7370 -16.7189
   -16.6568 -16.6457  -2.4332   0.6009   4.8540   5.9703   9.3549  11.5175

          k =-0.2500-0.5833 0.5833 (  7115 PWs)   bands (ev):

   -16.9495 -16.9400 -16.8776 -16.8336 -16.8274 -16.7470 -16.7445 -16.7260
   -16.6538 -16.6458  -2.3486   0.4763   4.6731   6.1410   9.3558  11.6405

          k =-0.1667-0.5000 0.5000 (  7115 PWs)   bands (ev):

   -16.9463 -16.9407 -16.8793 -16.8432 -16.8263 -16.7479 -16.7321 -16.7279
   -16.6530 -16.6501  -2.7445   1.1027   4.6726   6.4287   9.4462  11.8092

          k =-0.0833-0.4167 0.4167 (  7149 PWs)   bands (ev):

   -16.9401 -16.9393 -16.8876 -16.8512 -16.8318 -16.7449 -16.7277 -16.7140
   -16.6584 -16.6544  -3.2724   2.0898   4.8966   6.7966   9.5738  11.8122

          k =-0.0000-0.3333 0.3333 (  7157 PWs)   bands (ev):

   -16.9356 -16.9318 -16.8987 -16.8580 -16.8426 -16.7361 -16.7229 -16.6992
   -16.6694 -16.6584  -3.7359   3.1292   5.4347   7.1695   9.5653  11.3244

          k = 0.5000 0.0000 0.0000 (  7131 PWs)   bands (ev):

   -16.9294 -16.9294 -16.9179 -16.8516 -16.8210 -16.7721 -16.7139 -16.6746
   -16.6708 -16.6708  -3.6128   3.0917   5.9109   5.9109   8.8863  10.4399

          k = 0.5833 0.0833-0.0833 (  7135 PWs)   bands (ev):

   -16.9374 -16.9334 -16.9084 -16.8416 -16.8079 -16.7859 -16.7239 -16.6867
   -16.6643 -16.6593  -3.2261   2.2614   5.4414   5.6548   8.9862  10.3090

          k = 0.6667 0.1667-0.1667 (  7121 PWs)   bands (ev):

   -16.9464 -16.9372 -16.8937 -16.8311 -16.8015 -16.7913 -16.7351 -16.7029
   -16.6583 -16.6486  -2.7251   1.3588   4.8275   5.5350   9.1995  10.7925

          k =-0.2500-0.7500 0.7500 (  7115 PWs)   bands (ev):

   -16.9532 -16.9402 -16.8795 -16.8212 -16.8038 -16.7872 -16.7464 -16.7181
   -16.6536 -16.6412  -2.2039   0.5775   4.3059   5.5610   9.2426  11.8807

          k =-0.1667-0.6667 0.6667 (  7124 PWs)   bands (ev):

   -16.9562 -16.9424 -16.8704 -16.8134 -16.8120 -16.7767 -16.7563 -16.7277
   -16.6506 -16.6381  -1.9585   0.2553   3.9798   5.7298   9.3329  12.5999

          k =-0.0833-0.5833 0.5833 (  7113 PWs)   bands (ev):

   -16.9548 -16.9433 -16.8683 -16.8274 -16.8116 -16.7606 -16.7582 -16.7307
   -16.6496 -16.6402  -2.2623   0.6594   3.9111   6.0245   9.5103  12.7273

          k = 0.0000-0.5000 0.5000 (  7133 PWs)   bands (ev):

   -16.9490 -16.9424 -16.8743 -16.8424 -16.8189 -16.7558 -16.7376 -16.7281
   -16.6509 -16.6475  -2.7856   1.3915   4.1855   6.4067   9.6870  12.5038

          k = 0.6667 0.0000 0.0000 (  7123 PWs)   bands (ev):

   -16.9366 -16.9366 -16.9079 -16.8309 -16.8053 -16.7907 -16.7335 -16.6865
   -16.6593 -16.6593  -2.8800   1.6798   5.3710   5.3710   8.5471   9.7812

          k = 0.7500 0.0833-0.0833 (  7112 PWs)   bands (ev):

   -16.9431 -16.9396 -16.8954 -16.8194 -16.8182 -16.7779 -16.7450 -16.7003
   -16.6545 -16.6511  -2.4072   0.9556   4.9344   5.2215   8.7287   9.6797

          k =-0.1667-0.8333 0.8333 (  7106 PWs)   bands (ev):

   -16.9515 -16.9420 -16.8783 -16.8218 -16.8081 -16.7731 -16.7573 -16.7182
   -16.6508 -16.6420  -1.8663   0.2608   4.3070   5.2199   8.9138  10.4546

          k =-0.0833-0.7500 0.7500 (  7114 PWs)   bands (ev):

   -16.9574 -16.9437 -16.8671 -16.8107 -16.7987 -16.7821 -16.7685 -16.7296
   -16.6486 -16.6361  -1.5006  -0.1450   3.8134   5.3660   9.0417  11.8299

          k =-0.0000-0.6667 0.6667 (  7110 PWs)   bands (ev):

   -16.9587 -16.9443 -16.8648 -16.8040 -16.7993 -16.7864 -16.7703 -16.7319
   -16.6482 -16.6353  -1.7498   0.1341   3.6368   5.6458   9.2637  13.3675

          k = 0.8333 0.0000 0.0000 (  7111 PWs)   bands (ev):

   -16.9416 -16.9416 -16.8905 -16.8375 -16.8070 -16.7600 -16.7566 -16.7059
   -16.6512 -16.6512  -1.9612   0.3472   5.0370   5.0370   8.4578   9.0970

          k =-0.0833-0.9167 0.9167 (  7115 PWs)   bands (ev):

   -16.9464 -16.9430 -16.8755 -16.8482 -16.7947 -16.7692 -16.7489 -16.7214
   -16.6490 -16.6460  -1.4192  -0.2820   4.6776   4.9998   8.6767   9.2106

          k =-0.0000-0.8333 0.8333 (  7112 PWs)   bands (ev):

   -16.9533 -16.9438 -16.8656 -16.8389 -16.7862 -16.7789 -16.7562 -16.7315
   -16.6480 -16.6395  -1.0633  -0.6237   4.1310   5.1130   8.8125  10.3115

          k =-1.0000 0.0000 0.0000 (  7102 PWs)   bands (ev):

   -16.9434 -16.9434 -16.8666 -16.8666 -16.7816 -16.7816 -16.7310 -16.7310
   -16.6483 -16.6483  -0.8766  -0.8766   4.9242   4.9242   8.6401   8.6401

          k = 0.3333 0.1667 0.0000 (  7132 PWs)   bands (ev):

   -16.9297 -16.9245 -16.9101 -16.8644 -16.8487 -16.7377 -16.7076 -16.6887
   -16.6790 -16.6649  -4.0420   4.0606   6.1881   6.9939   9.8640  10.0592

          k = 0.4167 0.2500-0.0833 (  7144 PWs)   bands (ev):

   -16.9361 -16.9312 -16.9016 -16.8560 -16.8376 -16.7475 -16.7160 -16.6986
   -16.6688 -16.6588  -3.6578   2.9281   5.5965   6.7197   9.7568  10.6198

          k = 0.5000 0.3333-0.1667 (  7141 PWs)   bands (ev):

   -16.9418 -16.9359 -16.8918 -16.8479 -16.8304 -16.7522 -16.7231 -16.7113
   -16.6609 -16.6535  -3.1601   1.7820   5.2409   6.4083   9.5507  11.1097

          k =-0.4167-0.5833 0.7500 (  7136 PWs)   bands (ev):

   -16.9458 -16.9383 -16.8840 -16.8407 -16.8290 -16.7505 -16.7306 -16.7213
   -16.6567 -16.6496  -2.6450   0.8444   5.0532   6.1833   9.4024  11.2463

          k =-0.3333-0.5000 0.6667 (  7120 PWs)   bands (ev):

   -16.9472 -16.9390 -16.8811 -16.8361 -16.8310 -16.7460 -16.7377 -16.7241
   -16.6554 -16.6481  -2.3850   0.4389   4.9949   6.1023   9.3500  11.2527

          k = 0.5000 0.1667 0.0000 (  7137 PWs)   bands (ev):

   -16.9353 -16.9327 -16.9069 -16.8507 -16.8232 -16.7678 -16.7163 -16.6906
   -16.6669 -16.6604  -3.5174   2.7960   5.4990   6.1169   9.5269  10.4962

          k = 0.5833 0.2500-0.0833 (  7131 PWs)   bands (ev):

   -16.9431 -16.9377 -16.8941 -16.8412 -16.8135 -16.7764 -16.7263 -16.7043
   -16.6589 -16.6524  -3.0516   1.8519   4.9398   5.8555   9.7929  10.8308

          k =-0.3333-0.6667 0.8333 (  7126 PWs)   bands (ev):

   -16.9500 -16.9406 -16.8810 -16.8320 -16.8106 -16.7771 -16.7371 -16.7182
   -16.6541 -16.6448  -2.5208   0.9526   4.5392   5.6711   9.7965  11.4730

          k =-0.2500-0.5833 0.7500 (  7132 PWs)   bands (ev):

   -16.9536 -16.9424 -16.8720 -16.8252 -16.8139 -16.7705 -16.7474 -16.7271
   -16.6513 -16.6409  -2.1270   0.3812   4.2882   5.6546   9.8145  11.5645

          k =-0.1667-0.5000 0.6667 (  7127 PWs)   bands (ev):

   -16.9531 -16.9432 -16.8703 -16.8294 -16.8144 -16.7652 -16.7471 -16.7299
   -16.6504 -16.6418  -2.2347   0.5325   4.2064   5.8100   9.9154  11.5275

          k =-0.0833-0.4167 0.5833 (  7125 PWs)   bands (ev):

   -16.9484 -16.9425 -16.8766 -16.8399 -16.8164 -16.7646 -16.7315 -16.7276
   -16.6514 -16.6474  -2.7185   1.2602   4.3430   6.1017  10.0697  11.4266

          k =-0.0000-0.3333 0.5000 (  7143 PWs)   bands (ev):

   -16.9405 -16.9401 -16.8890 -16.8487 -16.8252 -16.7583 -16.7232 -16.7124
   -16.6577 -16.6539  -3.2362   2.1397   4.7818   6.4557  10.1487  10.9228

          k = 0.6667 0.1667 0.0000 (  7123 PWs)   bands (ev):

   -16.9408 -16.9401 -16.8978 -16.8310 -16.7996 -16.7947 -16.7344 -16.6979
   -16.6557 -16.6542  -2.7981   1.5342   4.9976   5.4003   9.1721  10.1434

          k =-0.2500-0.7500 0.9167 (  7121 PWs)   bands (ev):

   -16.9493 -16.9431 -16.8814 -16.8203 -16.8066 -16.7865 -16.7463 -16.7150
   -16.6509 -16.6449  -2.2733   0.7731   4.4643   5.2069   9.4947  10.6594

          k =-0.1667-0.6667 0.8333 (  7119 PWs)   bands (ev):

   -16.9557 -16.9450 -16.8674 -16.8114 -16.8032 -16.7870 -16.7583 -16.7290
   -16.6481 -16.6381  -1.7885   0.1647   4.0013   5.2092   9.6047  11.8943

          k =-0.0833-0.5833 0.7500 (  7123 PWs)   bands (ev):

   -16.9578 -16.9458 -16.8620 -16.8105 -16.7971 -16.7877 -16.7650 -16.7340
   -16.6470 -16.6361  -1.7478   0.1223   3.7590   5.3908   9.7761  12.6276

          k = 0.0000-0.5000 0.6667 (  7121 PWs)   bands (ev):

   -16.9551 -16.9453 -16.8653 -16.8259 -16.8037 -16.7760 -16.7531 -16.7326
   -16.6478 -16.6396  -2.1960   0.6507   3.8433   5.7120  10.0069  12.3235

          k =-0.1667-0.8333 1.0000 (  7116 PWs)   bands (ev):

   -16.9452 -16.9451 -16.8815 -16.8306 -16.8075 -16.7655 -16.7572 -16.7146
   -16.6480 -16.6479  -1.9022   0.3033   4.7225   4.9187   9.0483   9.5678

          k =-0.0833-0.7500 0.9167 (  7113 PWs)   bands (ev):

   -16.9527 -16.9464 -16.8640 -16.8327 -16.7961 -16.7701 -16.7618 -16.7320
   -16.6460 -16.6403  -1.3646  -0.2851   4.2108   4.8743   9.3297  10.3934

          k =-0.0000-0.6667 0.8333 (  7123 PWs)   bands (ev):

   -16.9576 -16.9467 -16.8588 -16.8152 -16.7930 -16.7765 -16.7764 -16.7367
   -16.6457 -16.6357  -1.2778  -0.3529   3.7964   5.0588   9.5114  11.8504

          k =-1.0000 0.1667 0.0000 (  7120 PWs)   bands (ev):

   -16.9468 -16.9468 -16.8585 -16.8585 -16.7822 -16.7822 -16.7381 -16.7381
   -16.6453 -16.6453  -0.8564  -0.8564   4.6928   4.6928   9.1798   9.1798

          k =-0.3333-0.6667 1.0000 (  7127 PWs)   bands (ev):

   -16.9479 -16.9450 -16.8784 -16.8317 -16.8018 -16.7867 -16.7372 -16.7203
   -16.6490 -16.6476  -2.5610   1.1513   4.3475   5.5275  10.5762  10.8284

          k =-0.2500-0.5833 0.9167 (  7117 PWs)   bands (ev):

   -16.9542 -16.9471 -16.8645 -16.8213 -16.7971 -16.7891 -16.7516 -16.7325
   -16.6465 -16.6400  -2.0336   0.4612   4.0171   5.2333  10.6986  11.3981

          k =-0.1667-0.5000 0.8333 (  7134 PWs)   bands (ev):

   -16.9566 -16.9476 -16.8590 -16.8157 -16.7962 -16.7885 -16.7601 -16.7366
   -16.6457 -16.6372  -1.7458   0.1106   3.9158   5.1205  10.6987  11.4237

          k =-0.1667-0.6667 1.0000 (  7114 PWs)   bands (ev):

   -16.9521 -16.9498 -16.8626 -16.8150 -16.8093 -16.7766 -16.7598 -16.7328
   -16.6435 -16.6413  -1.7395   0.1626   4.1813   4.7735  10.4219  10.7334

          k =-0.0833-0.5833 0.9167 (  7125 PWs)   bands (ev):

   -16.9565 -16.9511 -16.8488 -16.8153 -16.7995 -16.7769 -16.7709 -16.7445
   -16.6419 -16.6367  -1.3050  -0.2934   3.9314   4.6332  10.6960  11.9435

          k =-0.0000-0.5000 0.8333 (  7111 PWs)   bands (ev):

   -16.9572 -16.9503 -16.8513 -16.8067 -16.8038 -16.7823 -16.7697 -16.7421
   -16.6428 -16.6363  -1.5137  -0.0715   3.8207   4.8334  10.9046  12.1603

          k =-1.0000 0.3333 0.0000 (  7132 PWs)   bands (ev):

   -16.9526 -16.9526 -16.8410 -16.8410 -16.7846 -16.7846 -16.7525 -16.7525
   -16.6401 -16.6401  -0.8146  -0.8146   4.3170   4.3170  10.4838  10.4838

          k =-1.0000 0.5000 0.0000 (  7104 PWs)   bands (ev):

   -16.9551 -16.9551 -16.8300 -16.8300 -16.7879 -16.7879 -16.7600 -16.7600
   -16.6379 -16.6379  -0.7930  -0.7930   4.1563   4.1563  11.9519  11.9521

     the Fermi energy is     7.8324 ev

!    total energy              =    -427.30358514 Ry
     estimated scf accuracy    <       0.00000008 Ry
     smearing contrib. (-TS)   =      -0.00000257 Ry
     internal energy E=F+TS    =    -427.30358257 Ry

     The total energy is F=E-TS. E is the sum of the following terms:
     one-electron contribution =    -283.70460448 Ry
     hartree contribution      =     167.24730002 Ry
     xc contribution           =    -116.58456392 Ry
     ewald contribution        =    -194.26171420 Ry

     convergence has been achieved in   5 iterations

     Forces acting on atoms (cartesian axes, Ry/au):

     atom    1 type  1   force =     0.00000000    0.00000000    0.00000000
     atom    2 type  1   force =     0.00000000    0.00000000    0.00000000

     Total force =     0.000000     Total SCF correction =     0.000000


     Computing stress (Cartesian axis) and pressure

          total   stress  (Ry/bohr**3)                   (kbar)     P=        5.49
   0.00003734  -0.00000000  -0.00000000            5.49       -0.00       -0.00
  -0.00000000   0.00003734  -0.00000000           -0.00        5.49       -0.00
  -0.00000000   0.00000000   0.00003734           -0.00        0.00        5.49


     Writing all to output data dir ./Ge.save/ :
     XML data file, charge density, pseudopotentials, collected wavefunctions
 
     init_run     :      1.83s CPU      1.86s WALL (       1 calls)
     electrons    :     25.83s CPU     26.08s WALL (       1 calls)
     forces       :      0.38s CPU      0.38s WALL (       1 calls)
     stress       :      1.37s CPU      1.39s WALL (       1 calls)

     Called by init_run:
     wfcinit      :      1.58s CPU      1.59s WALL (       1 calls)
     potinit      :      0.02s CPU      0.02s WALL (       1 calls)
     hinit0       :      0.13s CPU      0.13s WALL (       1 calls)

     Called by electrons:
     c_bands      :     21.98s CPU     22.15s WALL (       6 calls)
     sum_band     :      3.65s CPU      3.68s WALL (       6 calls)
     v_of_rho     :      0.07s CPU      0.08s WALL (       6 calls)
     newd         :      0.17s CPU      0.19s WALL (       6 calls)
     mix_rho      :      0.01s CPU      0.01s WALL (       6 calls)

     Called by c_bands:
     init_us_2    :      0.27s CPU      0.28s WALL (    1080 calls)
     cegterg      :     20.76s CPU     20.86s WALL (     432 calls)

     Called by *egterg:
     cdiaghg      :      0.23s CPU      0.24s WALL (    1359 calls)
     h_psi        :     17.45s CPU     17.55s WALL (    1503 calls)
     s_psi        :      1.05s CPU      1.05s WALL (    1503 calls)
     g_psi        :      0.03s CPU      0.03s WALL (     999 calls)

     Called by h_psi:
     h_psi:calbec :      1.28s CPU      1.28s WALL (    1503 calls)
     vloc_psi     :     15.06s CPU     15.15s WALL (    1503 calls)
                                        0.00s GPU  (    1503 calls)
     add_vuspsi   :      1.07s CPU      1.08s WALL (    1503 calls)

     General routines
     calbec       :      2.95s CPU      2.96s WALL (    3159 calls)
     fft          :      0.14s CPU      0.14s WALL (      92 calls)
     ffts         :      0.00s CPU      0.00s WALL (       6 calls)
     fftw         :     16.57s CPU     16.67s WALL (   43054 calls)
 
     Parallel routines
 
     PWSCF        :     29.50s CPU     30.11s WALL

 
   This run was terminated on:  12:48:19   1Mar2026            

=------------------------------------------------------------------------------=
   JOB DONE.
=------------------------------------------------------------------------------=
