
     Program PWSCF v.7.5 starts on  1Mar2026 at 12:47:44 

     This program is part of the open-source Quantum ESPRESSO suite
     for quantum simulation of materials; please cite
         "P. Giannozzi et al., J. Phys.:Condens. Matter 21 395502 (2009);
         "P. Giannozzi et al., J. Phys.:Condens. Matter 29 465901 (2017);
         "P. Giannozzi et al., J. Chem. Phys. 152 154105 (2020);
          URL http://www.quantum-espresso.org", 
     in publications or presentations arising from this work. More details at
     http://www.quantum-espresso.org/quote

     Parallel version (MPI), running on     4 processors

     MPI processes distributed on     1 nodes
     500050 MiB available memory on the printing compute node when the environment starts
 
     Waiting for input...
     Reading input from standard input

     Current dimensions of program PWSCF are:
     Max number of different atomic species (ntypx) = 10
     Max number of k-points (npk) =  40000
     Max angular momentum in pseudopotentials (lmaxx) =  4
     Message from routine setup:
     using ibrav=0 with symmetry is DISCOURAGED, use correct ibrav instead
 
     R & G space division:  proc/nbgrp/npool/nimage =       4
     Subspace diagonalization in iterative solution of the eigenvalue problem:
     a serial algorithm will be used

 
     Parallelization info
     --------------------
     sticks:   dense  smooth     PW     G-vecs:    dense   smooth      PW
     Min         447     447    127                12558    12558    1930
     Max         448     448    128                12563    12563    1933
     Sum        1789    1789    511                50237    50237    7727
 
     Using Slab Decomposition
 


     bravais-lattice index     =            0
     lattice parameter (alat)  =      10.8700  a.u.
     unit-cell volume          =     321.0914 (a.u.)^3
     number of atoms/cell      =            2
     number of atomic types    =            1
     number of electrons       =        28.00
     number of Kohn-Sham states=           16
     kinetic-energy cutoff     =     110.0000  Ry
     charge density cutoff     =     440.0000  Ry
     scf convergence threshold =      1.0E-06
     mixing beta               =       0.7000
     number of iterations used =            8  plain     mixing
     Exchange-correlation=  SLA  PW   PBX  PBC
                           (   1   4   3   4   0   0   0)

     celldm(1)=  10.870000  celldm(2)=   0.000000  celldm(3)=   0.000000
     celldm(4)=   0.000000  celldm(5)=   0.000000  celldm(6)=   0.000000

     crystal axes: (cart. coord. in units of alat)
               a(1) = (   0.000000   0.500000   0.500000 )  
               a(2) = (   0.500000   0.000000   0.500000 )  
               a(3) = (   0.500000   0.500000   0.000000 )  

     reciprocal axes: (cart. coord. in units 2 pi/alat)
               b(1) = ( -1.000000  1.000000  1.000000 )  
               b(2) = (  1.000000 -1.000000  1.000000 )  
               b(3) = (  1.000000  1.000000 -1.000000 )  


     PseudoPot. # 1 for Ge read from file:
     ./ge_pbe_v1.4.uspp.F.UPF
     MD5 check sum: 9c9eaa91e581c3f09632fb3098b2c6b2
     Pseudo is Ultrasoft + core correction, Zval = 14.0
     Generated by new atomic code, or converted to UPF format
     Using radial grid of  873 points,  6 beta functions with: 
                l(1) =   0
                l(2) =   0
                l(3) =   1
                l(4) =   1
                l(5) =   2
                l(6) =   2
     Q(r) pseudized with  8 coefficients,  rinner =    1.400   1.400   1.400
                                                       1.400   1.400

     atomic species   valence    mass     pseudopotential
     Ge               14.00    72.63000     Ge( 1.00)

     48 Sym. Ops., with inversion, found (24 have fractional translation)



   Cartesian axes

     site n.     atom                  positions (alat units)
         1        Ge     tau(   1) = (   0.0000000   0.0000000   0.0000000  )
         2        Ge     tau(   2) = (   0.2500000   0.2500000   0.2500000  )

     number of k points=    72  Gaussian smearing, width (Ry)=  0.0020
                       cart. coord. in units 2pi/alat
        k(    1) = (   0.0000000   0.0000000   0.0000000), wk =   0.0011574
        k(    2) = (   0.0833333   0.0833333  -0.0833333), wk =   0.0092593
        k(    3) = (   0.1666667   0.1666667  -0.1666667), wk =   0.0092593
        k(    4) = (   0.2500000   0.2500000  -0.2500000), wk =   0.0092593
        k(    5) = (   0.3333333   0.3333333  -0.3333333), wk =   0.0092593
        k(    6) = (   0.4166667   0.4166667  -0.4166667), wk =   0.0092593
        k(    7) = (  -0.5000000  -0.5000000   0.5000000), wk =   0.0046296
        k(    8) = (   0.1666667   0.0000000   0.0000000), wk =   0.0069444
        k(    9) = (   0.2500000   0.0833333  -0.0833333), wk =   0.0277778
        k(   10) = (   0.3333333   0.1666667  -0.1666667), wk =   0.0277778
        k(   11) = (   0.4166667   0.2500000  -0.2500000), wk =   0.0277778
        k(   12) = (   0.5000000   0.3333333  -0.3333333), wk =   0.0277778
        k(   13) = (  -0.4166667  -0.5833333   0.5833333), wk =   0.0277778
        k(   14) = (  -0.3333333  -0.5000000   0.5000000), wk =   0.0277778
        k(   15) = (  -0.2500000  -0.4166667   0.4166667), wk =   0.0277778
        k(   16) = (  -0.1666667  -0.3333333   0.3333333), wk =   0.0277778
        k(   17) = (  -0.0833333  -0.2500000   0.2500000), wk =   0.0277778
        k(   18) = (  -0.0000000  -0.1666667   0.1666667), wk =   0.0138889
        k(   19) = (   0.3333333   0.0000000   0.0000000), wk =   0.0069444
        k(   20) = (   0.4166667   0.0833333  -0.0833333), wk =   0.0277778
        k(   21) = (   0.5000000   0.1666667  -0.1666667), wk =   0.0277778
        k(   22) = (   0.5833333   0.2500000  -0.2500000), wk =   0.0277778
        k(   23) = (  -0.3333333  -0.6666667   0.6666667), wk =   0.0277778
        k(   24) = (  -0.2500000  -0.5833333   0.5833333), wk =   0.0277778
        k(   25) = (  -0.1666667  -0.5000000   0.5000000), wk =   0.0277778
        k(   26) = (  -0.0833333  -0.4166667   0.4166667), wk =   0.0277778
        k(   27) = (  -0.0000000  -0.3333333   0.3333333), wk =   0.0138889
        k(   28) = (   0.5000000   0.0000000   0.0000000), wk =   0.0069444
        k(   29) = (   0.5833333   0.0833333  -0.0833333), wk =   0.0277778
        k(   30) = (   0.6666667   0.1666667  -0.1666667), wk =   0.0277778
        k(   31) = (  -0.2500000  -0.7500000   0.7500000), wk =   0.0277778
        k(   32) = (  -0.1666667  -0.6666667   0.6666667), wk =   0.0277778
        k(   33) = (  -0.0833333  -0.5833333   0.5833333), wk =   0.0277778
        k(   34) = (   0.0000000  -0.5000000   0.5000000), wk =   0.0138889
        k(   35) = (   0.6666667   0.0000000   0.0000000), wk =   0.0069444
        k(   36) = (   0.7500000   0.0833333  -0.0833333), wk =   0.0277778
        k(   37) = (  -0.1666667  -0.8333333   0.8333333), wk =   0.0277778
        k(   38) = (  -0.0833333  -0.7500000   0.7500000), wk =   0.0277778
        k(   39) = (  -0.0000000  -0.6666667   0.6666667), wk =   0.0138889
        k(   40) = (   0.8333333   0.0000000   0.0000000), wk =   0.0069444
        k(   41) = (  -0.0833333  -0.9166667   0.9166667), wk =   0.0277778
        k(   42) = (  -0.0000000  -0.8333333   0.8333333), wk =   0.0138889
        k(   43) = (  -1.0000000   0.0000000   0.0000000), wk =   0.0034722
        k(   44) = (   0.3333333   0.1666667   0.0000000), wk =   0.0277778
        k(   45) = (   0.4166667   0.2500000  -0.0833333), wk =   0.0555556
        k(   46) = (   0.5000000   0.3333333  -0.1666667), wk =   0.0555556
        k(   47) = (  -0.4166667  -0.5833333   0.7500000), wk =   0.0555556
        k(   48) = (  -0.3333333  -0.5000000   0.6666667), wk =   0.0277778
        k(   49) = (   0.5000000   0.1666667   0.0000000), wk =   0.0277778
        k(   50) = (   0.5833333   0.2500000  -0.0833333), wk =   0.0555556
        k(   51) = (  -0.3333333  -0.6666667   0.8333333), wk =   0.0555556
        k(   52) = (  -0.2500000  -0.5833333   0.7500000), wk =   0.0555556
        k(   53) = (  -0.1666667  -0.5000000   0.6666667), wk =   0.0555556
        k(   54) = (  -0.0833333  -0.4166667   0.5833333), wk =   0.0555556
        k(   55) = (  -0.0000000  -0.3333333   0.5000000), wk =   0.0277778
        k(   56) = (   0.6666667   0.1666667   0.0000000), wk =   0.0277778
        k(   57) = (  -0.2500000  -0.7500000   0.9166667), wk =   0.0555556
        k(   58) = (  -0.1666667  -0.6666667   0.8333333), wk =   0.0555556
        k(   59) = (  -0.0833333  -0.5833333   0.7500000), wk =   0.0555556
        k(   60) = (   0.0000000  -0.5000000   0.6666667), wk =   0.0277778
        k(   61) = (  -0.1666667  -0.8333333   1.0000000), wk =   0.0277778
        k(   62) = (  -0.0833333  -0.7500000   0.9166667), wk =   0.0555556
        k(   63) = (  -0.0000000  -0.6666667   0.8333333), wk =   0.0277778
        k(   64) = (  -1.0000000   0.1666667   0.0000000), wk =   0.0138889
        k(   65) = (  -0.3333333  -0.6666667   1.0000000), wk =   0.0277778
        k(   66) = (  -0.2500000  -0.5833333   0.9166667), wk =   0.0555556
        k(   67) = (  -0.1666667  -0.5000000   0.8333333), wk =   0.0277778
        k(   68) = (  -0.1666667  -0.6666667   1.0000000), wk =   0.0277778
        k(   69) = (  -0.0833333  -0.5833333   0.9166667), wk =   0.0555556
        k(   70) = (  -0.0000000  -0.5000000   0.8333333), wk =   0.0277778
        k(   71) = (  -1.0000000   0.3333333   0.0000000), wk =   0.0138889
        k(   72) = (  -1.0000000   0.5000000   0.0000000), wk =   0.0069444

     Dense  grid:    50237 G-vectors     FFT dimensions: (  60,  60,  60)

     Estimated max dynamical RAM per process >      77.88 MB

     Estimated total dynamical RAM >     311.52 MB

     Check: negative core charge=   -0.000001

     Initial potential from superposition of free atoms

     starting charge      27.9983, renormalised to      28.0000
     Starting wfcs are   18 randomized atomic wfcs

     total cpu time spent up to now is        1.8 secs

     Self-consistent Calculation

     iteration #  1     ecut=   110.00 Ry     beta= 0.70
     Davidson diagonalization with overlap
     ethr =  1.00E-02,  avg # of iterations =  2.4

     Threshold (ethr) on eigenvalues was too large:
     Diagonalizing with lowered threshold

     Davidson diagonalization with overlap
     ethr =  1.04E-04,  avg # of iterations =  2.9

     total cpu time spent up to now is        9.5 secs

     total energy              =    -427.30262858 Ry
     estimated scf accuracy    <       0.03137577 Ry

     iteration #  2     ecut=   110.00 Ry     beta= 0.70
     Davidson diagonalization with overlap
     ethr =  1.12E-04,  avg # of iterations =  1.0

     total cpu time spent up to now is       12.9 secs

     total energy              =    -427.30343575 Ry
     estimated scf accuracy    <       0.00178590 Ry

     iteration #  3     ecut=   110.00 Ry     beta= 0.70
     Davidson diagonalization with overlap
     ethr =  6.38E-06,  avg # of iterations =  2.8

     total cpu time spent up to now is       16.8 secs

     total energy              =    -427.30352827 Ry
     estimated scf accuracy    <       0.00002562 Ry

     iteration #  4     ecut=   110.00 Ry     beta= 0.70
     Davidson diagonalization with overlap
     ethr =  9.15E-08,  avg # of iterations =  2.7

     total cpu time spent up to now is       21.6 secs

     total energy              =    -427.30353916 Ry
     estimated scf accuracy    <       0.00000275 Ry

     iteration #  5     ecut=   110.00 Ry     beta= 0.70
     Davidson diagonalization with overlap
     ethr =  9.83E-09,  avg # of iterations =  2.1

     total cpu time spent up to now is       26.2 secs

     End of self-consistent calculation

          k = 0.0000 0.0000 0.0000 (  6231 PWs)   bands (ev):

   -16.9132 -16.9132 -16.9132 -16.8813 -16.8813 -16.6955 -16.6955 -16.6955
   -16.6866 -16.6866  -4.5758   7.4133   7.8275   7.8275   7.8275  10.3575

          k = 0.0833 0.0833-0.0833 (  6258 PWs)   bands (ev):

   -16.9169 -16.9169 -16.9122 -16.8763 -16.8763 -16.7023 -16.7023 -16.6967
   -16.6805 -16.6805  -4.4949   6.1570   7.6722   7.6722   8.5532  10.5668

          k = 0.1667 0.1667-0.1667 (  6234 PWs)   bands (ev):

   -16.9236 -16.9236 -16.9094 -16.8662 -16.8662 -16.7118 -16.7118 -16.6999
   -16.6729 -16.6729  -4.2553   4.6284   7.3384   7.3384   8.5958  11.0122

          k = 0.2500 0.2500-0.2500 (  6246 PWs)   bands (ev):

   -16.9292 -16.9292 -16.9055 -16.8565 -16.8565 -16.7197 -16.7197 -16.7044
   -16.6671 -16.6671  -3.8695   3.1658   6.9965   6.9965   8.3366  11.3935

          k = 0.3333 0.3333-0.3333 (  6237 PWs)   bands (ev):

   -16.9327 -16.9327 -16.9015 -16.8494 -16.8494 -16.7249 -16.7249 -16.7090
   -16.6633 -16.6633  -3.3712   1.8691   6.7254   6.7254   8.0851  11.5515

          k = 0.4167 0.4167-0.4167 (  6243 PWs)   bands (ev):

   -16.9344 -16.9344 -16.8985 -16.8456 -16.8456 -16.7275 -16.7275 -16.7124
   -16.6613 -16.6613  -2.8599   0.8689   6.5554   6.5554   7.9205  11.5576

          k =-0.5000-0.5000 0.5000 (  6266 PWs)   bands (ev):

   -16.9349 -16.9349 -16.8974 -16.8445 -16.8445 -16.7281 -16.7281 -16.7137
   -16.6607 -16.6607  -2.6053   0.4499   6.4978   6.4978   7.8641  11.5430

          k = 0.1667 0.0000 0.0000 (  6254 PWs)   bands (ev):

   -16.9171 -16.9156 -16.9156 -16.8779 -16.8711 -16.7133 -16.6920 -16.6920
   -16.6897 -16.6764  -4.4677   6.0681   7.3929   7.3929   9.1260  10.0374

          k = 0.2500 0.0833-0.0833 (  6231 PWs)   bands (ev):

   -16.9242 -16.9201 -16.9131 -16.8711 -16.8604 -16.7250 -16.7008 -16.6919
   -16.6815 -16.6705  -4.2803   4.9310   7.0168   7.0684   9.4383  10.1091

          k = 0.3333 0.1667-0.1667 (  6249 PWs)   bands (ev):

   -16.9315 -16.9258 -16.9076 -16.8616 -16.8496 -16.7346 -16.7102 -16.6969
   -16.6735 -16.6639  -3.9412   3.5552   6.6688   6.6805   9.2277  10.6378

          k = 0.4167 0.2500-0.2500 (  6262 PWs)   bands (ev):

   -16.9369 -16.9304 -16.9010 -16.8530 -16.8418 -16.7399 -16.7183 -16.7043
   -16.6674 -16.6586  -3.4743   2.2449   6.2791   6.4432   8.9541  11.0821

          k = 0.5000 0.3333-0.3333 (  6269 PWs)   bands (ev):

   -16.9400 -16.9337 -16.8948 -16.8462 -16.8389 -16.7399 -16.7250 -16.7120
   -16.6628 -16.6554  -2.9476   1.1490   5.9719   6.3278   8.7412  11.2772

          k =-0.4167-0.5833 0.5833 (  6264 PWs)   bands (ev):

   -16.9408 -16.9358 -16.8909 -16.8414 -16.8403 -16.7352 -16.7305 -16.7180
   -16.6596 -16.6548  -2.5634   0.5014   5.7765   6.3396   8.6260  11.3795

          k =-0.3333-0.5000 0.5000 (  6259 PWs)   bands (ev):

   -16.9396 -16.9370 -16.8906 -16.8442 -16.8389 -16.7345 -16.7282 -16.7201
   -16.6578 -16.6566  -2.6547   0.6465   5.7076   6.4742   8.6198  11.5076

          k =-0.2500-0.4167 0.4167 (  6256 PWs)   bands (ev):

   -16.9368 -16.9364 -16.8943 -16.8494 -16.8398 -16.7355 -16.7249 -16.7136
   -16.6610 -16.6579  -3.1233   1.4833   5.7755   6.7183   8.7202  11.5983

          k =-0.1667-0.3333 0.3333 (  6238 PWs)   bands (ev):

   -16.9345 -16.9314 -16.9005 -16.8560 -16.8455 -16.7321 -16.7216 -16.7033
   -16.6678 -16.6601  -3.6428   2.6657   5.9902   7.0458   8.9066  11.3575

          k =-0.0833-0.2500 0.2500 (  6243 PWs)   bands (ev):

   -16.9299 -16.9247 -16.9072 -16.8641 -16.8554 -16.7243 -16.7157 -16.6937
   -16.6767 -16.6647  -4.0711   3.9983   6.3681   7.4028   9.1020  10.9656

          k =-0.0000-0.1667 0.1667 (  6223 PWs)   bands (ev):

   -16.9233 -16.9181 -16.9120 -16.8724 -16.8670 -16.7138 -16.7078 -16.6884
   -16.6850 -16.6717  -4.3608   5.2856   6.9564   7.6710   9.0272  10.6010

          k = 0.3333 0.0000 0.0000 (  6238 PWs)   bands (ev):

   -16.9217 -16.9217 -16.9206 -16.8677 -16.8488 -16.7407 -16.6991 -16.6828
   -16.6828 -16.6712  -4.1450   4.5603   6.6203   6.6203   9.4266  10.2851

          k = 0.4167 0.0833-0.0833 (  6246 PWs)   bands (ev):

   -16.9308 -16.9262 -16.9138 -16.8594 -16.8362 -16.7541 -16.7079 -16.6850
   -16.6753 -16.6656  -3.8548   3.5973   6.1768   6.2745   9.4420  10.4295

          k = 0.5000 0.1667-0.1667 (  6259 PWs)   bands (ev):

   -16.9393 -16.9310 -16.9035 -16.8498 -16.8265 -16.7629 -16.7180 -16.6956
   -16.6678 -16.6567  -3.4262   2.4583   5.6530   6.0378   9.5561  10.7600

          k = 0.5833 0.2500-0.2500 (  6249 PWs)   bands (ev):

   -16.9458 -16.9349 -16.8922 -16.8408 -16.8226 -16.7647 -16.7279 -16.7080
   -16.6616 -16.6496  -2.9051   1.3849   5.1901   5.9342   9.4468  11.2963

          k =-0.3333-0.6667 0.6667 (  6274 PWs)   bands (ev):

   -16.9493 -16.9380 -16.8827 -16.8330 -16.8256 -16.7589 -16.7371 -16.7190
   -16.6569 -16.6458  -2.4332   0.6009   4.8541   5.9703   9.3550  11.5176

          k =-0.2500-0.5833 0.5833 (  6265 PWs)   bands (ev):

   -16.9495 -16.9401 -16.8777 -16.8337 -16.8275 -16.7470 -16.7446 -16.7261
   -16.6539 -16.6459  -2.3486   0.4763   4.6731   6.1410   9.3559  11.6404

          k =-0.1667-0.5000 0.5000 (  6260 PWs)   bands (ev):

   -16.9464 -16.9407 -16.8794 -16.8432 -16.8264 -16.7480 -16.7322 -16.7279
   -16.6530 -16.6502  -2.7444   1.1027   4.6726   6.4287   9.4463  11.8093

          k =-0.0833-0.4167 0.4167 (  6258 PWs)   bands (ev):

   -16.9402 -16.9394 -16.8877 -16.8513 -16.8319 -16.7450 -16.7278 -16.7141
   -16.6585 -16.6545  -3.2723   2.0898   4.8967   6.7967   9.5738  11.8122

          k =-0.0000-0.3333 0.3333 (  6245 PWs)   bands (ev):

   -16.9357 -16.9319 -16.8987 -16.8581 -16.8427 -16.7362 -16.7230 -16.6993
   -16.6695 -16.6584  -3.7359   3.1293   5.4347   7.1695   9.5653  11.3244

          k = 0.5000 0.0000 0.0000 (  6254 PWs)   bands (ev):

   -16.9295 -16.9295 -16.9180 -16.8517 -16.8211 -16.7722 -16.7140 -16.6747
   -16.6708 -16.6708  -3.6127   3.0917   5.9110   5.9110   8.8864  10.4400

          k = 0.5833 0.0833-0.0833 (  6258 PWs)   bands (ev):

   -16.9375 -16.9335 -16.9085 -16.8416 -16.8080 -16.7860 -16.7240 -16.6868
   -16.6644 -16.6593  -3.2260   2.2614   5.4414   5.6549   8.9863  10.3090

          k = 0.6667 0.1667-0.1667 (  6254 PWs)   bands (ev):

   -16.9465 -16.9373 -16.8937 -16.8312 -16.8016 -16.7914 -16.7351 -16.7030
   -16.6584 -16.6487  -2.7251   1.3588   4.8276   5.5350   9.1996  10.7926

          k =-0.2500-0.7500 0.7500 (  6263 PWs)   bands (ev):

   -16.9533 -16.9403 -16.8796 -16.8213 -16.8038 -16.7873 -16.7464 -16.7182
   -16.6537 -16.6412  -2.2039   0.5775   4.3060   5.5611   9.2427  11.8805

          k =-0.1667-0.6667 0.6667 (  6270 PWs)   bands (ev):

   -16.9563 -16.9425 -16.8705 -16.8135 -16.8121 -16.7768 -16.7563 -16.7278
   -16.6507 -16.6382  -1.9585   0.2553   3.9799   5.7299   9.3330  12.5999

          k =-0.0833-0.5833 0.5833 (  6263 PWs)   bands (ev):

   -16.9549 -16.9434 -16.8684 -16.8275 -16.8116 -16.7607 -16.7582 -16.7307
   -16.6497 -16.6403  -2.2623   0.6594   3.9111   6.0245   9.5103  12.7274

          k = 0.0000-0.5000 0.5000 (  6259 PWs)   bands (ev):

   -16.9491 -16.9425 -16.8744 -16.8425 -16.8190 -16.7558 -16.7377 -16.7281
   -16.6510 -16.6475  -2.7856   1.3915   4.1855   6.4067   9.6871  12.5031

          k = 0.6667 0.0000 0.0000 (  6242 PWs)   bands (ev):

   -16.9367 -16.9367 -16.9080 -16.8309 -16.8053 -16.7908 -16.7336 -16.6866
   -16.6594 -16.6594  -2.8800   1.6798   5.3710   5.3710   8.5472   9.7813

          k = 0.7500 0.0833-0.0833 (  6250 PWs)   bands (ev):

   -16.9432 -16.9397 -16.8955 -16.8195 -16.8183 -16.7780 -16.7451 -16.7004
   -16.6546 -16.6512  -2.4072   0.9556   4.9345   5.2215   8.7288   9.6798

          k =-0.1667-0.8333 0.8333 (  6251 PWs)   bands (ev):

   -16.9516 -16.9421 -16.8784 -16.8219 -16.8081 -16.7732 -16.7574 -16.7182
   -16.6509 -16.6421  -1.8663   0.2608   4.3071   5.2199   8.9139  10.4547

          k =-0.0833-0.7500 0.7500 (  6267 PWs)   bands (ev):

   -16.9575 -16.9438 -16.8672 -16.8108 -16.7988 -16.7822 -16.7686 -16.7297
   -16.6487 -16.6362  -1.5006  -0.1450   3.8134   5.3661   9.0418  11.8300

          k =-0.0000-0.6667 0.6667 (  6295 PWs)   bands (ev):

   -16.9588 -16.9443 -16.8649 -16.8041 -16.7994 -16.7865 -16.7704 -16.7320
   -16.6482 -16.6353  -1.7498   0.1341   3.6369   5.6458   9.2638  13.3675

          k = 0.8333 0.0000 0.0000 (  6254 PWs)   bands (ev):

   -16.9417 -16.9417 -16.8906 -16.8376 -16.8071 -16.7601 -16.7567 -16.7060
   -16.6513 -16.6513  -1.9612   0.3473   5.0370   5.0370   8.4579   9.0971

          k =-0.0833-0.9167 0.9167 (  6263 PWs)   bands (ev):

   -16.9465 -16.9431 -16.8755 -16.8483 -16.7947 -16.7693 -16.7490 -16.7215
   -16.6490 -16.6461  -1.4192  -0.2820   4.6776   4.9998   8.6768   9.2107

          k =-0.0000-0.8333 0.8333 (  6256 PWs)   bands (ev):

   -16.9534 -16.9439 -16.8657 -16.8390 -16.7863 -16.7789 -16.7563 -16.7316
   -16.6481 -16.6396  -1.0633  -0.6237   4.1311   5.1130   8.8126  10.3116

          k =-1.0000 0.0000 0.0000 (  6314 PWs)   bands (ev):

   -16.9435 -16.9435 -16.8667 -16.8667 -16.7817 -16.7817 -16.7311 -16.7311
   -16.6484 -16.6484  -0.8766  -0.8766   4.9242   4.9242   8.6402   8.6402

          k = 0.3333 0.1667 0.0000 (  6236 PWs)   bands (ev):

   -16.9298 -16.9246 -16.9102 -16.8645 -16.8488 -16.7377 -16.7077 -16.6888
   -16.6791 -16.6650  -4.0420   4.0606   6.1882   6.9939   9.8640  10.0592

          k = 0.4167 0.2500-0.0833 (  6245 PWs)   bands (ev):

   -16.9362 -16.9313 -16.9016 -16.8560 -16.8376 -16.7476 -16.7160 -16.6987
   -16.6689 -16.6588  -3.6577   2.9281   5.5965   6.7197   9.7568  10.6198

          k = 0.5000 0.3333-0.1667 (  6255 PWs)   bands (ev):

   -16.9419 -16.9360 -16.8918 -16.8480 -16.8304 -16.7523 -16.7231 -16.7114
   -16.6610 -16.6536  -3.1600   1.7821   5.2409   6.4084   9.5508  11.1100

          k =-0.4167-0.5833 0.7500 (  6257 PWs)   bands (ev):

   -16.9459 -16.9384 -16.8841 -16.8408 -16.8290 -16.7506 -16.7307 -16.7214
   -16.6568 -16.6497  -2.6450   0.8444   5.0532   6.1834   9.4025  11.2463

          k =-0.3333-0.5000 0.6667 (  6258 PWs)   bands (ev):

   -16.9473 -16.9391 -16.8811 -16.8361 -16.8310 -16.7460 -16.7378 -16.7242
   -16.6555 -16.6481  -2.3850   0.4390   4.9950   6.1023   9.3500  11.2528

          k = 0.5000 0.1667 0.0000 (  6250 PWs)   bands (ev):

   -16.9354 -16.9328 -16.9070 -16.8507 -16.8233 -16.7679 -16.7163 -16.6907
   -16.6670 -16.6605  -3.5173   2.7960   5.4991   6.1169   9.5269  10.4962

          k = 0.5833 0.2500-0.0833 (  6256 PWs)   bands (ev):

   -16.9432 -16.9378 -16.8942 -16.8413 -16.8136 -16.7765 -16.7264 -16.7044
   -16.6590 -16.6525  -3.0516   1.8519   4.9398   5.8556   9.7930  10.8308

          k =-0.3333-0.6667 0.8333 (  6250 PWs)   bands (ev):

   -16.9501 -16.9407 -16.8810 -16.8321 -16.8107 -16.7772 -16.7371 -16.7183
   -16.6542 -16.6449  -2.5207   0.9526   4.5392   5.6711   9.7965  11.4730

          k =-0.2500-0.5833 0.7500 (  6262 PWs)   bands (ev):

   -16.9537 -16.9425 -16.8721 -16.8253 -16.8139 -16.7706 -16.7474 -16.7272
   -16.6514 -16.6410  -2.1270   0.3812   4.2883   5.6546   9.8146  11.5645

          k =-0.1667-0.5000 0.6667 (  6259 PWs)   bands (ev):

   -16.9531 -16.9433 -16.8704 -16.8295 -16.8145 -16.7653 -16.7471 -16.7300
   -16.6505 -16.6419  -2.2347   0.5325   4.2064   5.8100   9.9155  11.5276

          k =-0.0833-0.4167 0.5833 (  6250 PWs)   bands (ev):

   -16.9485 -16.9426 -16.8767 -16.8400 -16.8165 -16.7647 -16.7316 -16.7276
   -16.6515 -16.6475  -2.7185   1.2602   4.3430   6.1017  10.0698  11.4267

          k =-0.0000-0.3333 0.5000 (  6263 PWs)   bands (ev):

   -16.9406 -16.9402 -16.8891 -16.8488 -16.8253 -16.7584 -16.7232 -16.7125
   -16.6578 -16.6540  -3.2362   2.1398   4.7819   6.4558  10.1487  10.9228

          k = 0.6667 0.1667 0.0000 (  6267 PWs)   bands (ev):

   -16.9409 -16.9402 -16.8979 -16.8311 -16.7997 -16.7948 -16.7345 -16.6980
   -16.6558 -16.6543  -2.7981   1.5342   4.9977   5.4004   9.1722  10.1434

          k =-0.2500-0.7500 0.9167 (  6257 PWs)   bands (ev):

   -16.9493 -16.9432 -16.8815 -16.8204 -16.8067 -16.7866 -16.7463 -16.7151
   -16.6510 -16.6450  -2.2733   0.7731   4.4644   5.2069   9.4948  10.6595

          k =-0.1667-0.6667 0.8333 (  6271 PWs)   bands (ev):

   -16.9557 -16.9451 -16.8675 -16.8114 -16.8033 -16.7871 -16.7584 -16.7291
   -16.6482 -16.6382  -1.7884   0.1648   4.0014   5.2092   9.6048  11.8943

          k =-0.0833-0.5833 0.7500 (  6259 PWs)   bands (ev):

   -16.9579 -16.9459 -16.8621 -16.8105 -16.7972 -16.7878 -16.7651 -16.7341
   -16.6471 -16.6362  -1.7478   0.1223   3.7591   5.3908   9.7762  12.6276

          k = 0.0000-0.5000 0.6667 (  6258 PWs)   bands (ev):

   -16.9552 -16.9453 -16.8653 -16.8259 -16.8038 -16.7761 -16.7531 -16.7326
   -16.6479 -16.6397  -2.1960   0.6507   3.8433   5.7120  10.0069  12.3235

          k =-0.1667-0.8333 1.0000 (  6257 PWs)   bands (ev):

   -16.9452 -16.9452 -16.8815 -16.8307 -16.8076 -16.7656 -16.7572 -16.7147
   -16.6480 -16.6480  -1.9022   0.3034   4.7225   4.9187   9.0484   9.5679

          k =-0.0833-0.7500 0.9167 (  6252 PWs)   bands (ev):

   -16.9528 -16.9465 -16.8640 -16.8328 -16.7962 -16.7702 -16.7619 -16.7321
   -16.6461 -16.6403  -1.3646  -0.2851   4.2108   4.8743   9.3298  10.3935

          k =-0.0000-0.6667 0.8333 (  6266 PWs)   bands (ev):

   -16.9577 -16.9468 -16.8588 -16.8153 -16.7930 -16.7766 -16.7764 -16.7368
   -16.6457 -16.6357  -1.2778  -0.3529   3.7965   5.0588   9.5115  11.8505

          k =-1.0000 0.1667 0.0000 (  6274 PWs)   bands (ev):

   -16.9469 -16.9469 -16.8586 -16.8586 -16.7823 -16.7823 -16.7382 -16.7382
   -16.6454 -16.6454  -0.8564  -0.8564   4.6928   4.6928   9.1799   9.1799

          k =-0.3333-0.6667 1.0000 (  6242 PWs)   bands (ev):

   -16.9479 -16.9451 -16.8785 -16.8317 -16.8019 -16.7867 -16.7373 -16.7204
   -16.6491 -16.6476  -2.5609   1.1513   4.3475   5.5275  10.5763  10.8284

          k =-0.2500-0.5833 0.9167 (  6255 PWs)   bands (ev):

   -16.9543 -16.9471 -16.8645 -16.8214 -16.7972 -16.7892 -16.7517 -16.7326
   -16.6465 -16.6401  -2.0336   0.4612   4.0171   5.2333  10.6986  11.3982

          k =-0.1667-0.5000 0.8333 (  6256 PWs)   bands (ev):

   -16.9567 -16.9477 -16.8590 -16.8157 -16.7963 -16.7886 -16.7602 -16.7366
   -16.6457 -16.6373  -1.7458   0.1107   3.9159   5.1206  10.6987  11.4237

          k =-0.1667-0.6667 1.0000 (  6246 PWs)   bands (ev):

   -16.9522 -16.9499 -16.8627 -16.8151 -16.8094 -16.7766 -16.7599 -16.7329
   -16.6436 -16.6414  -1.7395   0.1626   4.1813   4.7736  10.4220  10.7335

          k =-0.0833-0.5833 0.9167 (  6250 PWs)   bands (ev):

   -16.9566 -16.9511 -16.8489 -16.8154 -16.7996 -16.7770 -16.7710 -16.7446
   -16.6420 -16.6368  -1.3050  -0.2934   3.9315   4.6332  10.6960  11.9436

          k =-0.0000-0.5000 0.8333 (  6241 PWs)   bands (ev):

   -16.9573 -16.9503 -16.8514 -16.8068 -16.8038 -16.7824 -16.7698 -16.7422
   -16.6429 -16.6364  -1.5137  -0.0715   3.8207   4.8334  10.9047  12.1604

          k =-1.0000 0.3333 0.0000 (  6252 PWs)   bands (ev):

   -16.9527 -16.9527 -16.8411 -16.8411 -16.7847 -16.7847 -16.7526 -16.7526
   -16.6402 -16.6402  -0.8146  -0.8146   4.3170   4.3170  10.4839  10.4839

          k =-1.0000 0.5000 0.0000 (  6228 PWs)   bands (ev):

   -16.9552 -16.9552 -16.8301 -16.8301 -16.7880 -16.7880 -16.7601 -16.7601
   -16.6380 -16.6380  -0.7930  -0.7930   4.1563   4.1563  11.9519  11.9521

     the Fermi energy is     7.8324 ev

!    total energy              =    -427.30353975 Ry
     estimated scf accuracy    <       0.00000008 Ry
     smearing contrib. (-TS)   =      -0.00000257 Ry
     internal energy E=F+TS    =    -427.30353719 Ry

     The total energy is F=E-TS. E is the sum of the following terms:
     one-electron contribution =    -283.70446483 Ry
     hartree contribution      =     167.24714808 Ry
     xc contribution           =    -116.58450625 Ry
     ewald contribution        =    -194.26171420 Ry

     convergence has been achieved in   5 iterations

     Forces acting on atoms (cartesian axes, Ry/au):

     atom    1 type  1   force =     0.00000000    0.00000000    0.00000000
     atom    2 type  1   force =     0.00000000    0.00000000    0.00000000

     Total force =     0.000000     Total SCF correction =     0.000000


     Computing stress (Cartesian axis) and pressure

          total   stress  (Ry/bohr**3)                   (kbar)     P=        4.93
   0.00003354  -0.00000000   0.00000000            4.93       -0.00        0.00
  -0.00000000   0.00003354  -0.00000000           -0.00        4.93       -0.00
   0.00000000   0.00000000   0.00003354            0.00        0.00        4.93


     Writing all to output data dir ./Ge.save/ :
     XML data file, charge density, pseudopotentials, collected wavefunctions
 
     init_run     :      1.70s CPU      1.72s WALL (       1 calls)
     electrons    :     24.21s CPU     24.43s WALL (       1 calls)
     forces       :      0.32s CPU      0.33s WALL (       1 calls)
     stress       :      1.20s CPU      1.22s WALL (       1 calls)

     Called by init_run:
     wfcinit      :      1.48s CPU      1.49s WALL (       1 calls)
     potinit      :      0.01s CPU      0.02s WALL (       1 calls)
     hinit0       :      0.12s CPU      0.13s WALL (       1 calls)

     Called by electrons:
     c_bands      :     20.59s CPU     20.74s WALL (       6 calls)
     sum_band     :      3.43s CPU      3.46s WALL (       6 calls)
     v_of_rho     :      0.07s CPU      0.08s WALL (       6 calls)
     newd         :      0.15s CPU      0.17s WALL (       6 calls)
     mix_rho      :      0.00s CPU      0.00s WALL (       6 calls)

     Called by c_bands:
     init_us_2    :      0.23s CPU      0.24s WALL (    1080 calls)
     cegterg      :     19.53s CPU     19.62s WALL (     432 calls)

     Called by *egterg:
     cdiaghg      :      0.23s CPU      0.23s WALL (    1356 calls)
     h_psi        :     16.80s CPU     16.89s WALL (    1500 calls)
     s_psi        :      0.88s CPU      0.89s WALL (    1500 calls)
     g_psi        :      0.02s CPU      0.02s WALL (     996 calls)

     Called by h_psi:
     h_psi:calbec :      1.11s CPU      1.11s WALL (    1500 calls)
     vloc_psi     :     14.75s CPU     14.83s WALL (    1500 calls)
                                        0.00s GPU  (    1500 calls)
     add_vuspsi   :      0.91s CPU      0.91s WALL (    1500 calls)

     General routines
     calbec       :      2.56s CPU      2.57s WALL (    3156 calls)
     fft          :      0.14s CPU      0.14s WALL (      92 calls)
     ffts         :      0.00s CPU      0.00s WALL (       6 calls)
     fftw         :     16.21s CPU     16.30s WALL (   43044 calls)
 
     Parallel routines
 
     PWSCF        :     27.52s CPU     28.05s WALL

 
   This run was terminated on:  12:48:12   1Mar2026            

=------------------------------------------------------------------------------=
   JOB DONE.
=------------------------------------------------------------------------------=
