
     Program PWSCF v.7.5 starts on  2Mar2026 at 12:24:59 

     This program is part of the open-source Quantum ESPRESSO suite
     for quantum simulation of materials; please cite
         "P. Giannozzi et al., J. Phys.:Condens. Matter 21 395502 (2009);
         "P. Giannozzi et al., J. Phys.:Condens. Matter 29 465901 (2017);
         "P. Giannozzi et al., J. Chem. Phys. 152 154105 (2020);
          URL http://www.quantum-espresso.org", 
     in publications or presentations arising from this work. More details at
     http://www.quantum-espresso.org/quote

     Parallel version (MPI), running on     4 processors

     MPI processes distributed on     1 nodes
     484923 MiB available memory on the printing compute node when the environment starts
 
     Waiting for input...
     Reading input from standard input

     Current dimensions of program PWSCF are:
     Max number of different atomic species (ntypx) = 10
     Max number of k-points (npk) =  40000
     Max angular momentum in pseudopotentials (lmaxx) =  4
     Message from routine setup:
     using ibrav=0 with symmetry is DISCOURAGED, use correct ibrav instead
 
     R & G space division:  proc/nbgrp/npool/nimage =       4
     Subspace diagonalization in iterative solution of the eigenvalue problem:
     a serial algorithm will be used

 
     Parallelization info
     --------------------
     sticks:   dense  smooth     PW     G-vecs:    dense   smooth      PW
     Min         447     447    127                12558    12558    1947
     Max         448     448    128                12563    12563    1951
     Sum        1789    1789    511                50237    50237    7799
 
     Using Slab Decomposition
 


     bravais-lattice index     =            0
     lattice parameter (alat)  =      10.8700  a.u.
     unit-cell volume          =     321.0914 (a.u.)^3
     number of atoms/cell      =            2
     number of atomic types    =            1
     number of electrons       =        28.00
     number of Kohn-Sham states=           16
     kinetic-energy cutoff     =     110.0000  Ry
     charge density cutoff     =     440.0000  Ry
     scf convergence threshold =      1.0E-06
     mixing beta               =       0.7000
     number of iterations used =            8  plain     mixing
     Exchange-correlation=  SLA  PW   PBX  PBC
                           (   1   4   3   4   0   0   0)

     celldm(1)=  10.870000  celldm(2)=   0.000000  celldm(3)=   0.000000
     celldm(4)=   0.000000  celldm(5)=   0.000000  celldm(6)=   0.000000

     crystal axes: (cart. coord. in units of alat)
               a(1) = (   0.000000   0.500000   0.500000 )  
               a(2) = (   0.500000   0.000000   0.500000 )  
               a(3) = (   0.500000   0.500000   0.000000 )  

     reciprocal axes: (cart. coord. in units 2 pi/alat)
               b(1) = ( -1.000000  1.000000  1.000000 )  
               b(2) = (  1.000000 -1.000000  1.000000 )  
               b(3) = (  1.000000  1.000000 -1.000000 )  


     PseudoPot. # 1 for Ge read from file:
     ./ge_pbe_v1.4.uspp.F.UPF
     MD5 check sum: 9c9eaa91e581c3f09632fb3098b2c6b2
     Pseudo is Ultrasoft + core correction, Zval = 14.0
     Generated by new atomic code, or converted to UPF format
     Using radial grid of  873 points,  6 beta functions with: 
                l(1) =   0
                l(2) =   0
                l(3) =   1
                l(4) =   1
                l(5) =   2
                l(6) =   2
     Q(r) pseudized with  8 coefficients,  rinner =    1.400   1.400   1.400
                                                       1.400   1.400

     atomic species   valence    mass     pseudopotential
     Ge               14.00    72.63000     Ge( 1.00)

     48 Sym. Ops., with inversion, found (24 have fractional translation)



   Cartesian axes

     site n.     atom                  positions (alat units)
         1        Ge     tau(   1) = (   0.0000000   0.0000000   0.0000000  )
         2        Ge     tau(   2) = (   0.2500000   0.2500000   0.2500000  )

     number of k points=   104  Gaussian smearing, width (Ry)=  0.0020

     Number of k-points >= 100: set verbosity='high' to print them.

     Dense  grid:    50237 G-vectors     FFT dimensions: (  60,  60,  60)

     Estimated max dynamical RAM per process >      90.10 MB

     Estimated total dynamical RAM >     360.39 MB

     Check: negative core charge=   -0.000001

     Initial potential from superposition of free atoms

     starting charge      27.9983, renormalised to      28.0000
     Starting wfcs are   18 randomized atomic wfcs

     total cpu time spent up to now is        2.8 secs

     Self-consistent Calculation

     iteration #  1     ecut=   110.00 Ry     beta= 0.70
     Davidson diagonalization with overlap
     ethr =  1.00E-02,  avg # of iterations =  2.4

     Threshold (ethr) on eigenvalues was too large:
     Diagonalizing with lowered threshold

     Davidson diagonalization with overlap
     ethr =  1.04E-04,  avg # of iterations =  2.8

     total cpu time spent up to now is       13.9 secs

     total energy              =    -427.30269095 Ry
     estimated scf accuracy    <       0.03133156 Ry

     iteration #  2     ecut=   110.00 Ry     beta= 0.70
     Davidson diagonalization with overlap
     ethr =  1.12E-04,  avg # of iterations =  1.0

     total cpu time spent up to now is       18.7 secs

     total energy              =    -427.30349437 Ry
     estimated scf accuracy    <       0.00178436 Ry

     iteration #  3     ecut=   110.00 Ry     beta= 0.70
     Davidson diagonalization with overlap
     ethr =  6.37E-06,  avg # of iterations =  3.1

     total cpu time spent up to now is       24.3 secs

     total energy              =    -427.30358644 Ry
     estimated scf accuracy    <       0.00002570 Ry

     iteration #  4     ecut=   110.00 Ry     beta= 0.70
     Davidson diagonalization with overlap
     ethr =  9.18E-08,  avg # of iterations =  2.8

     total cpu time spent up to now is       31.2 secs

     total energy              =    -427.30359727 Ry
     estimated scf accuracy    <       0.00000277 Ry

     iteration #  5     ecut=   110.00 Ry     beta= 0.70
     Davidson diagonalization with overlap
     ethr =  9.91E-09,  avg # of iterations =  2.0

     total cpu time spent up to now is       37.9 secs

     End of self-consistent calculation

     Number of k-points >= 100: set verbosity='high' to print the bands.

     the Fermi energy is     7.8321 ev

!    total energy              =    -427.30359785 Ry
     estimated scf accuracy    <       0.00000008 Ry
     smearing contrib. (-TS)   =      -0.00000162 Ry
     internal energy E=F+TS    =    -427.30359624 Ry

     The total energy is F=E-TS. E is the sum of the following terms:
     one-electron contribution =    -283.70392849 Ry
     hartree contribution      =     167.24648274 Ry
     xc contribution           =    -116.58443629 Ry
     ewald contribution        =    -194.26171420 Ry

     convergence has been achieved in   5 iterations

     Forces acting on atoms (cartesian axes, Ry/au):

     atom    1 type  1   force =     0.00000000    0.00000000    0.00000000
     atom    2 type  1   force =     0.00000000    0.00000000    0.00000000

     Total force =     0.000000     Total SCF correction =     0.000000


     Computing stress (Cartesian axis) and pressure

          total   stress  (Ry/bohr**3)                   (kbar)     P=        4.97
   0.00003377   0.00000000   0.00000000            4.97        0.00        0.00
   0.00000000   0.00003377   0.00000000            0.00        4.97        0.00
   0.00000000   0.00000000   0.00003377            0.00        0.00        4.97


     Writing all to output data dir ./Ge.save/ :
     XML data file, charge density, pseudopotentials, collected wavefunctions
 
     init_run     :      2.34s CPU      2.38s WALL (       1 calls)
     electrons    :     34.62s CPU     35.02s WALL (       1 calls)
     forces       :      0.45s CPU      0.46s WALL (       1 calls)
     stress       :      1.73s CPU      1.74s WALL (       1 calls)

     Called by init_run:
     wfcinit      :      2.12s CPU      2.14s WALL (       1 calls)
     potinit      :      0.01s CPU      0.02s WALL (       1 calls)
     hinit0       :      0.13s CPU      0.13s WALL (       1 calls)

     Called by electrons:
     c_bands      :     29.55s CPU     29.85s WALL (       6 calls)
     sum_band     :      4.88s CPU      4.95s WALL (       6 calls)
     v_of_rho     :      0.07s CPU      0.08s WALL (       6 calls)
     newd         :      0.14s CPU      0.16s WALL (       6 calls)
     mix_rho      :      0.00s CPU      0.00s WALL (       6 calls)

     Called by c_bands:
     init_us_2    :      0.32s CPU      0.33s WALL (    1560 calls)
     cegterg      :     28.04s CPU     28.26s WALL (     624 calls)

     Called by *egterg:
     cdiaghg      :      0.32s CPU      0.33s WALL (    1994 calls)
     h_psi        :     24.12s CPU     24.32s WALL (    2202 calls)
     s_psi        :      1.27s CPU      1.28s WALL (    2202 calls)
     g_psi        :      0.03s CPU      0.03s WALL (    1474 calls)

     Called by h_psi:
     h_psi:calbec :      1.52s CPU      1.54s WALL (    2202 calls)
     vloc_psi     :     21.27s CPU     21.45s WALL (    2202 calls)
                                        0.00s GPU  (    2202 calls)
     add_vuspsi   :      1.29s CPU      1.30s WALL (    2202 calls)

     General routines
     calbec       :      3.65s CPU      3.67s WALL (    4594 calls)
     fft          :      0.14s CPU      0.14s WALL (      92 calls)
     ffts         :      0.00s CPU      0.00s WALL (       6 calls)
     fftw         :     23.51s CPU     23.66s WALL (   62228 calls)
 
     Parallel routines
 
     PWSCF        :     39.23s CPU     41.35s WALL

 
   This run was terminated on:  12:25:40   2Mar2026            

=------------------------------------------------------------------------------=
   JOB DONE.
=------------------------------------------------------------------------------=
