
     Program PWSCF v.7.5 starts on  4Mar2026 at 13:21: 2 

     This program is part of the open-source Quantum ESPRESSO suite
     for quantum simulation of materials; please cite
         "P. Giannozzi et al., J. Phys.:Condens. Matter 21 395502 (2009);
         "P. Giannozzi et al., J. Phys.:Condens. Matter 29 465901 (2017);
         "P. Giannozzi et al., J. Chem. Phys. 152 154105 (2020);
          URL http://www.quantum-espresso.org", 
     in publications or presentations arising from this work. More details at
     http://www.quantum-espresso.org/quote

     Parallel version (MPI), running on     4 processors

     MPI processes distributed on     1 nodes
     495887 MiB available memory on the printing compute node when the environment starts
 
     Waiting for input...
     Reading input from standard input

     Current dimensions of program PWSCF are:
     Max number of different atomic species (ntypx) = 10
     Max number of k-points (npk) =  40000
     Max angular momentum in pseudopotentials (lmaxx) =  4
     Message from routine setup:
     using ibrav=0 with symmetry is DISCOURAGED, use correct ibrav instead
 
     R & G space division:  proc/nbgrp/npool/nimage =       4
     Subspace diagonalization in iterative solution of the eigenvalue problem:
     a serial algorithm will be used

 
     Parallelization info
     --------------------
     sticks:   dense  smooth     PW     G-vecs:    dense   smooth      PW
     Min         447     447    127                12558    12558    1930
     Max         448     448    128                12563    12563    1933
     Sum        1789    1789    511                50237    50237    7727
 
     Using Slab Decomposition
 


     bravais-lattice index     =            0
     lattice parameter (alat)  =      10.8700  a.u.
     unit-cell volume          =     321.0914 (a.u.)^3
     number of atoms/cell      =            2
     number of atomic types    =            1
     number of electrons       =        28.00
     number of Kohn-Sham states=           16
     kinetic-energy cutoff     =     110.0000  Ry
     charge density cutoff     =     440.0000  Ry
     scf convergence threshold =      1.0E-12
     mixing beta               =       0.7000
     number of iterations used =            8  plain     mixing
     energy convergence thresh.=      1.0E-04
     force convergence thresh. =      1.0E-03
     press convergence thresh. =      5.0E-01
     Exchange-correlation=  SLA  PW   PBX  PBC
                           (   1   4   3   4   0   0   0)
     nstep                     =           50


     celldm(1)=  10.870000  celldm(2)=   0.000000  celldm(3)=   0.000000
     celldm(4)=   0.000000  celldm(5)=   0.000000  celldm(6)=   0.000000

     crystal axes: (cart. coord. in units of alat)
               a(1) = (   0.000000   0.500000   0.500000 )  
               a(2) = (   0.500000   0.000000   0.500000 )  
               a(3) = (   0.500000   0.500000   0.000000 )  

     reciprocal axes: (cart. coord. in units 2 pi/alat)
               b(1) = ( -1.000000  1.000000  1.000000 )  
               b(2) = (  1.000000 -1.000000  1.000000 )  
               b(3) = (  1.000000  1.000000 -1.000000 )  


     PseudoPot. # 1 for Ge read from file:
     ./ge_pbe_v1.4.uspp.F.UPF
     MD5 check sum: 9c9eaa91e581c3f09632fb3098b2c6b2
     Pseudo is Ultrasoft + core correction, Zval = 14.0
     Generated by new atomic code, or converted to UPF format
     Using radial grid of  873 points,  6 beta functions with: 
                l(1) =   0
                l(2) =   0
                l(3) =   1
                l(4) =   1
                l(5) =   2
                l(6) =   2
     Q(r) pseudized with  8 coefficients,  rinner =    1.400   1.400   1.400
                                                       1.400   1.400

     atomic species   valence    mass     pseudopotential
     Ge               14.00    72.63000     Ge( 1.00)

     48 Sym. Ops., with inversion, found (24 have fractional translation)



   Cartesian axes

     site n.     atom                  positions (alat units)
         1        Ge     tau(   1) = (   0.0000000   0.0000000   0.0000000  )
         2        Ge     tau(   2) = (   0.2500000   0.2500000   0.2500000  )

     number of k points=    72  Gaussian smearing, width (Ry)=  0.0020
                       cart. coord. in units 2pi/alat
        k(    1) = (   0.0000000   0.0000000   0.0000000), wk =   0.0011574
        k(    2) = (   0.0833333   0.0833333  -0.0833333), wk =   0.0092593
        k(    3) = (   0.1666667   0.1666667  -0.1666667), wk =   0.0092593
        k(    4) = (   0.2500000   0.2500000  -0.2500000), wk =   0.0092593
        k(    5) = (   0.3333333   0.3333333  -0.3333333), wk =   0.0092593
        k(    6) = (   0.4166667   0.4166667  -0.4166667), wk =   0.0092593
        k(    7) = (  -0.5000000  -0.5000000   0.5000000), wk =   0.0046296
        k(    8) = (   0.1666667   0.0000000   0.0000000), wk =   0.0069444
        k(    9) = (   0.2500000   0.0833333  -0.0833333), wk =   0.0277778
        k(   10) = (   0.3333333   0.1666667  -0.1666667), wk =   0.0277778
        k(   11) = (   0.4166667   0.2500000  -0.2500000), wk =   0.0277778
        k(   12) = (   0.5000000   0.3333333  -0.3333333), wk =   0.0277778
        k(   13) = (  -0.4166667  -0.5833333   0.5833333), wk =   0.0277778
        k(   14) = (  -0.3333333  -0.5000000   0.5000000), wk =   0.0277778
        k(   15) = (  -0.2500000  -0.4166667   0.4166667), wk =   0.0277778
        k(   16) = (  -0.1666667  -0.3333333   0.3333333), wk =   0.0277778
        k(   17) = (  -0.0833333  -0.2500000   0.2500000), wk =   0.0277778
        k(   18) = (  -0.0000000  -0.1666667   0.1666667), wk =   0.0138889
        k(   19) = (   0.3333333   0.0000000   0.0000000), wk =   0.0069444
        k(   20) = (   0.4166667   0.0833333  -0.0833333), wk =   0.0277778
        k(   21) = (   0.5000000   0.1666667  -0.1666667), wk =   0.0277778
        k(   22) = (   0.5833333   0.2500000  -0.2500000), wk =   0.0277778
        k(   23) = (  -0.3333333  -0.6666667   0.6666667), wk =   0.0277778
        k(   24) = (  -0.2500000  -0.5833333   0.5833333), wk =   0.0277778
        k(   25) = (  -0.1666667  -0.5000000   0.5000000), wk =   0.0277778
        k(   26) = (  -0.0833333  -0.4166667   0.4166667), wk =   0.0277778
        k(   27) = (  -0.0000000  -0.3333333   0.3333333), wk =   0.0138889
        k(   28) = (   0.5000000   0.0000000   0.0000000), wk =   0.0069444
        k(   29) = (   0.5833333   0.0833333  -0.0833333), wk =   0.0277778
        k(   30) = (   0.6666667   0.1666667  -0.1666667), wk =   0.0277778
        k(   31) = (  -0.2500000  -0.7500000   0.7500000), wk =   0.0277778
        k(   32) = (  -0.1666667  -0.6666667   0.6666667), wk =   0.0277778
        k(   33) = (  -0.0833333  -0.5833333   0.5833333), wk =   0.0277778
        k(   34) = (   0.0000000  -0.5000000   0.5000000), wk =   0.0138889
        k(   35) = (   0.6666667   0.0000000   0.0000000), wk =   0.0069444
        k(   36) = (   0.7500000   0.0833333  -0.0833333), wk =   0.0277778
        k(   37) = (  -0.1666667  -0.8333333   0.8333333), wk =   0.0277778
        k(   38) = (  -0.0833333  -0.7500000   0.7500000), wk =   0.0277778
        k(   39) = (  -0.0000000  -0.6666667   0.6666667), wk =   0.0138889
        k(   40) = (   0.8333333   0.0000000   0.0000000), wk =   0.0069444
        k(   41) = (  -0.0833333  -0.9166667   0.9166667), wk =   0.0277778
        k(   42) = (  -0.0000000  -0.8333333   0.8333333), wk =   0.0138889
        k(   43) = (  -1.0000000   0.0000000   0.0000000), wk =   0.0034722
        k(   44) = (   0.3333333   0.1666667   0.0000000), wk =   0.0277778
        k(   45) = (   0.4166667   0.2500000  -0.0833333), wk =   0.0555556
        k(   46) = (   0.5000000   0.3333333  -0.1666667), wk =   0.0555556
        k(   47) = (  -0.4166667  -0.5833333   0.7500000), wk =   0.0555556
        k(   48) = (  -0.3333333  -0.5000000   0.6666667), wk =   0.0277778
        k(   49) = (   0.5000000   0.1666667   0.0000000), wk =   0.0277778
        k(   50) = (   0.5833333   0.2500000  -0.0833333), wk =   0.0555556
        k(   51) = (  -0.3333333  -0.6666667   0.8333333), wk =   0.0555556
        k(   52) = (  -0.2500000  -0.5833333   0.7500000), wk =   0.0555556
        k(   53) = (  -0.1666667  -0.5000000   0.6666667), wk =   0.0555556
        k(   54) = (  -0.0833333  -0.4166667   0.5833333), wk =   0.0555556
        k(   55) = (  -0.0000000  -0.3333333   0.5000000), wk =   0.0277778
        k(   56) = (   0.6666667   0.1666667   0.0000000), wk =   0.0277778
        k(   57) = (  -0.2500000  -0.7500000   0.9166667), wk =   0.0555556
        k(   58) = (  -0.1666667  -0.6666667   0.8333333), wk =   0.0555556
        k(   59) = (  -0.0833333  -0.5833333   0.7500000), wk =   0.0555556
        k(   60) = (   0.0000000  -0.5000000   0.6666667), wk =   0.0277778
        k(   61) = (  -0.1666667  -0.8333333   1.0000000), wk =   0.0277778
        k(   62) = (  -0.0833333  -0.7500000   0.9166667), wk =   0.0555556
        k(   63) = (  -0.0000000  -0.6666667   0.8333333), wk =   0.0277778
        k(   64) = (  -1.0000000   0.1666667   0.0000000), wk =   0.0138889
        k(   65) = (  -0.3333333  -0.6666667   1.0000000), wk =   0.0277778
        k(   66) = (  -0.2500000  -0.5833333   0.9166667), wk =   0.0555556
        k(   67) = (  -0.1666667  -0.5000000   0.8333333), wk =   0.0277778
        k(   68) = (  -0.1666667  -0.6666667   1.0000000), wk =   0.0277778
        k(   69) = (  -0.0833333  -0.5833333   0.9166667), wk =   0.0555556
        k(   70) = (  -0.0000000  -0.5000000   0.8333333), wk =   0.0277778
        k(   71) = (  -1.0000000   0.3333333   0.0000000), wk =   0.0138889
        k(   72) = (  -1.0000000   0.5000000   0.0000000), wk =   0.0069444

     Dense  grid:    50237 G-vectors     FFT dimensions: (  60,  60,  60)

     Estimated max dynamical RAM per process >      79.56 MB

     Estimated total dynamical RAM >     318.25 MB

     Check: negative core charge=   -0.000001

     Initial potential from superposition of free atoms

     starting charge      27.9983, renormalised to      28.0000
     Starting wfcs are   18 randomized atomic wfcs

     total cpu time spent up to now is        3.3 secs

     Self-consistent Calculation

     iteration #  1     ecut=   110.00 Ry     beta= 0.70
     Davidson diagonalization with overlap
     ethr =  1.00E-02,  avg # of iterations =  2.4

     Threshold (ethr) on eigenvalues was too large:
     Diagonalizing with lowered threshold

     Davidson diagonalization with overlap
     ethr =  1.04E-04,  avg # of iterations =  2.9

     total cpu time spent up to now is       11.2 secs

     total energy              =    -427.30262858 Ry
     estimated scf accuracy    <       0.03137577 Ry

     iteration #  2     ecut=   110.00 Ry     beta= 0.70
     Davidson diagonalization with overlap
     ethr =  1.12E-04,  avg # of iterations =  1.0

     total cpu time spent up to now is       14.7 secs

     total energy              =    -427.30343575 Ry
     estimated scf accuracy    <       0.00178590 Ry

     iteration #  3     ecut=   110.00 Ry     beta= 0.70
     Davidson diagonalization with overlap
     ethr =  6.38E-06,  avg # of iterations =  2.8

     total cpu time spent up to now is       18.6 secs

     total energy              =    -427.30352827 Ry
     estimated scf accuracy    <       0.00002562 Ry

     iteration #  4     ecut=   110.00 Ry     beta= 0.70
     Davidson diagonalization with overlap
     ethr =  9.15E-08,  avg # of iterations =  2.7

     total cpu time spent up to now is       23.5 secs

     total energy              =    -427.30353916 Ry
     estimated scf accuracy    <       0.00000275 Ry

     iteration #  5     ecut=   110.00 Ry     beta= 0.70
     Davidson diagonalization with overlap
     ethr =  9.83E-09,  avg # of iterations =  2.1

     total cpu time spent up to now is       28.2 secs

     total energy              =    -427.30353976 Ry
     estimated scf accuracy    <       0.00000008 Ry

     iteration #  6     ecut=   110.00 Ry     beta= 0.70
     Davidson diagonalization with overlap
     ethr =  2.89E-10,  avg # of iterations =  3.1

     total cpu time spent up to now is       33.4 secs

     total energy              =    -427.30353981 Ry
     estimated scf accuracy    <          5.7E-09 Ry

     iteration #  7     ecut=   110.00 Ry     beta= 0.70
     Davidson diagonalization with overlap
     ethr =  2.05E-11,  avg # of iterations =  2.5

     total cpu time spent up to now is       38.2 secs

     total energy              =    -427.30353981 Ry
     estimated scf accuracy    <          9.5E-11 Ry

     iteration #  8     ecut=   110.00 Ry     beta= 0.70
     Davidson diagonalization with overlap
     ethr =  3.38E-13,  avg # of iterations =  4.1

     total cpu time spent up to now is       43.8 secs

     total energy              =    -427.30353981 Ry
     estimated scf accuracy    <          1.2E-11 Ry

     iteration #  9     ecut=   110.00 Ry     beta= 0.70
     Davidson diagonalization with overlap
     ethr =  1.00E-13,  avg # of iterations =  2.0

     total cpu time spent up to now is       48.2 secs

     End of self-consistent calculation

          k = 0.0000 0.0000 0.0000 (  6231 PWs)   bands (ev):

   -16.9113 -16.9113 -16.9113 -16.8794 -16.8794 -16.6936 -16.6936 -16.6936
   -16.6846 -16.6846  -4.5752   7.4142   7.8282   7.8282   7.8282  10.3579

          k = 0.0833 0.0833-0.0833 (  6258 PWs)   bands (ev):

   -16.9150 -16.9150 -16.9103 -16.8744 -16.8744 -16.7004 -16.7004 -16.6947
   -16.6785 -16.6785  -4.4943   6.1578   7.6728   7.6728   8.5539  10.5671

          k = 0.1667 0.1667-0.1667 (  6234 PWs)   bands (ev):

   -16.9217 -16.9217 -16.9075 -16.8643 -16.8643 -16.7098 -16.7098 -16.6980
   -16.6710 -16.6710  -4.2547   4.6292   7.3390   7.3390   8.5966  11.0126

          k = 0.2500 0.2500-0.2500 (  6246 PWs)   bands (ev):

   -16.9273 -16.9273 -16.9036 -16.8545 -16.8545 -16.7178 -16.7178 -16.7025
   -16.6651 -16.6651  -3.8688   3.1665   6.9971   6.9971   8.3373  11.3939

          k = 0.3333 0.3333-0.3333 (  6237 PWs)   bands (ev):

   -16.9308 -16.9308 -16.8996 -16.8475 -16.8475 -16.7230 -16.7230 -16.7070
   -16.6613 -16.6613  -3.3706   1.8698   6.7260   6.7260   8.0860  11.5519

          k = 0.4167 0.4167-0.4167 (  6243 PWs)   bands (ev):

   -16.9325 -16.9325 -16.8966 -16.8437 -16.8437 -16.7255 -16.7255 -16.7105
   -16.6593 -16.6593  -2.8592   0.8696   6.5560   6.5560   7.9214  11.5580

          k =-0.5000-0.5000 0.5000 (  6266 PWs)   bands (ev):

   -16.9330 -16.9330 -16.8955 -16.8426 -16.8426 -16.7262 -16.7262 -16.7118
   -16.6587 -16.6587  -2.6047   0.4506   6.4984   6.4984   7.8650  11.5435

          k = 0.1667 0.0000 0.0000 (  6254 PWs)   bands (ev):

   -16.9152 -16.9137 -16.9137 -16.8759 -16.8691 -16.7113 -16.6901 -16.6901
   -16.6878 -16.6744  -4.4671   6.0689   7.3935   7.3935   9.1268  10.0379

          k = 0.2500 0.0833-0.0833 (  6231 PWs)   bands (ev):

   -16.9222 -16.9182 -16.9111 -16.8691 -16.8585 -16.7231 -16.6989 -16.6900
   -16.6795 -16.6686  -4.2797   4.9318   7.0174   7.0691   9.4390  10.1097

          k = 0.3333 0.1667-0.1667 (  6249 PWs)   bands (ev):

   -16.9296 -16.9239 -16.9057 -16.8597 -16.8476 -16.7326 -16.7083 -16.6950
   -16.6716 -16.6620  -3.9406   3.5559   6.6694   6.6810   9.2284  10.6382

          k = 0.4167 0.2500-0.2500 (  6262 PWs)   bands (ev):

   -16.9350 -16.9285 -16.8991 -16.8510 -16.8399 -16.7380 -16.7164 -16.7024
   -16.6654 -16.6567  -3.4736   2.2456   6.2797   6.4438   8.9548  11.0825

          k = 0.5000 0.3333-0.3333 (  6269 PWs)   bands (ev):

   -16.9381 -16.9317 -16.8929 -16.8443 -16.8370 -16.7380 -16.7231 -16.7100
   -16.6608 -16.6535  -2.9470   1.1497   5.9726   6.3283   8.7420  11.2777

          k =-0.4167-0.5833 0.5833 (  6264 PWs)   bands (ev):

   -16.9389 -16.9339 -16.8890 -16.8395 -16.8384 -16.7332 -16.7286 -16.7161
   -16.6576 -16.6528  -2.5628   0.5021   5.7772   6.3402   8.6268  11.3800

          k =-0.3333-0.5000 0.5000 (  6259 PWs)   bands (ev):

   -16.9377 -16.9351 -16.8887 -16.8423 -16.8370 -16.7326 -16.7263 -16.7181
   -16.6559 -16.6547  -2.6540   0.6472   5.7082   6.4748   8.6206  11.5082

          k =-0.2500-0.4167 0.4167 (  6256 PWs)   bands (ev):

   -16.9349 -16.9345 -16.8924 -16.8475 -16.8379 -16.7336 -16.7230 -16.7116
   -16.6591 -16.6559  -3.1227   1.4840   5.7762   6.7188   8.7210  11.5985

          k =-0.1667-0.3333 0.3333 (  6238 PWs)   bands (ev):

   -16.9326 -16.9294 -16.8986 -16.8540 -16.8436 -16.7302 -16.7197 -16.7014
   -16.6659 -16.6582  -3.6422   2.6664   5.9908   7.0464   8.9073  11.3579

          k =-0.0833-0.2500 0.2500 (  6243 PWs)   bands (ev):

   -16.9280 -16.9228 -16.9053 -16.8622 -16.8535 -16.7224 -16.7138 -16.6917
   -16.6748 -16.6628  -4.0704   3.9990   6.3687   7.4034   9.1027  10.9659

          k =-0.0000-0.1667 0.1667 (  6223 PWs)   bands (ev):

   -16.9214 -16.9162 -16.9101 -16.8705 -16.8651 -16.7118 -16.7059 -16.6865
   -16.6830 -16.6697  -4.3602   5.2864   6.9570   7.6716   9.0279  10.6014

          k = 0.3333 0.0000 0.0000 (  6238 PWs)   bands (ev):

   -16.9198 -16.9198 -16.9187 -16.8658 -16.8468 -16.7388 -16.6971 -16.6809
   -16.6809 -16.6692  -4.1444   4.5611   6.6208   6.6208   9.4273  10.2859

          k = 0.4167 0.0833-0.0833 (  6246 PWs)   bands (ev):

   -16.9289 -16.9243 -16.9119 -16.8574 -16.8343 -16.7522 -16.7060 -16.6831
   -16.6734 -16.6636  -3.8541   3.5980   6.1774   6.2751   9.4428  10.4302

          k = 0.5000 0.1667-0.1667 (  6259 PWs)   bands (ev):

   -16.9374 -16.9290 -16.9016 -16.8479 -16.8246 -16.7610 -16.7161 -16.6936
   -16.6658 -16.6547  -3.4255   2.4589   5.6536   6.0383   9.5569  10.7606

          k = 0.5833 0.2500-0.2500 (  6249 PWs)   bands (ev):

   -16.9439 -16.9330 -16.8903 -16.8389 -16.8207 -16.7628 -16.7260 -16.7061
   -16.6596 -16.6477  -2.9044   1.3856   5.1907   5.9347   9.4476  11.2969

          k =-0.3333-0.6667 0.6667 (  6274 PWs)   bands (ev):

   -16.9474 -16.9361 -16.8808 -16.8311 -16.8237 -16.7569 -16.7352 -16.7171
   -16.6549 -16.6439  -2.4325   0.6016   4.8547   5.9708   9.3557  11.5182

          k =-0.2500-0.5833 0.5833 (  6265 PWs)   bands (ev):

   -16.9476 -16.9382 -16.8758 -16.8317 -16.8256 -16.7451 -16.7427 -16.7242
   -16.6520 -16.6440  -2.3479   0.4770   4.6737   6.1415   9.3566  11.6411

          k =-0.1667-0.5000 0.5000 (  6260 PWs)   bands (ev):

   -16.9445 -16.9388 -16.8775 -16.8413 -16.8245 -16.7461 -16.7302 -16.7260
   -16.6511 -16.6483  -2.7438   1.1034   4.6732   6.4293   9.4470  11.8102

          k =-0.0833-0.4167 0.4167 (  6258 PWs)   bands (ev):

   -16.9382 -16.9375 -16.8858 -16.8494 -16.8299 -16.7430 -16.7259 -16.7121
   -16.6566 -16.6526  -3.2717   2.0905   4.8973   6.7972   9.5745  11.8126

          k =-0.0000-0.3333 0.3333 (  6245 PWs)   bands (ev):

   -16.9338 -16.9300 -16.8968 -16.8562 -16.8408 -16.7342 -16.7211 -16.6973
   -16.6675 -16.6565  -3.7352   3.1300   5.4353   7.1701   9.5660  11.3247

          k = 0.5000 0.0000 0.0000 (  6254 PWs)   bands (ev):

   -16.9276 -16.9276 -16.9161 -16.8498 -16.8191 -16.7703 -16.7121 -16.6727
   -16.6689 -16.6689  -3.6121   3.0924   5.9115   5.9115   8.8872  10.4407

          k = 0.5833 0.0833-0.0833 (  6258 PWs)   bands (ev):

   -16.9355 -16.9316 -16.9066 -16.8397 -16.8060 -16.7841 -16.7220 -16.6849
   -16.6624 -16.6574  -3.2254   2.2621   5.4420   5.6554   8.9872  10.3098

          k = 0.6667 0.1667-0.1667 (  6254 PWs)   bands (ev):

   -16.9446 -16.9353 -16.8918 -16.8293 -16.7997 -16.7895 -16.7332 -16.7010
   -16.6564 -16.6468  -2.7244   1.3595   4.8282   5.5355   9.2004  10.7933

          k =-0.2500-0.7500 0.7500 (  6263 PWs)   bands (ev):

   -16.9513 -16.9384 -16.8776 -16.8194 -16.8019 -16.7854 -16.7445 -16.7162
   -16.6517 -16.6393  -2.2032   0.5782   4.3066   5.5616   9.2435  11.8811

          k =-0.1667-0.6667 0.6667 (  6270 PWs)   bands (ev):

   -16.9544 -16.9406 -16.8685 -16.8116 -16.8102 -16.7748 -16.7544 -16.7258
   -16.6488 -16.6362  -1.9578   0.2560   3.9805   5.7304   9.3338  12.6005

          k =-0.0833-0.5833 0.5833 (  6263 PWs)   bands (ev):

   -16.9529 -16.9415 -16.8665 -16.8256 -16.8097 -16.7587 -16.7563 -16.7288
   -16.6478 -16.6384  -2.2616   0.6601   3.9118   6.0251   9.5111  12.7280

          k = 0.0000-0.5000 0.5000 (  6259 PWs)   bands (ev):

   -16.9472 -16.9405 -16.8725 -16.8406 -16.8170 -16.7539 -16.7357 -16.7262
   -16.6490 -16.6456  -2.7849   1.3922   4.1862   6.4073   9.6877  12.5032

          k = 0.6667 0.0000 0.0000 (  6242 PWs)   bands (ev):

   -16.9348 -16.9348 -16.9061 -16.8290 -16.8034 -16.7888 -16.7317 -16.6847
   -16.6575 -16.6575  -2.8794   1.6805   5.3715   5.3715   8.5481   9.7821

          k = 0.7500 0.0833-0.0833 (  6250 PWs)   bands (ev):

   -16.9413 -16.9378 -16.8935 -16.8175 -16.8164 -16.7761 -16.7432 -16.6984
   -16.6527 -16.6493  -2.4065   0.9563   4.9350   5.2220   8.7297   9.6807

          k =-0.1667-0.8333 0.8333 (  6251 PWs)   bands (ev):

   -16.9497 -16.9402 -16.8765 -16.8199 -16.8062 -16.7712 -16.7555 -16.7163
   -16.6490 -16.6402  -1.8657   0.2615   4.3076   5.2205   8.9148  10.4555

          k =-0.0833-0.7500 0.7500 (  6267 PWs)   bands (ev):

   -16.9556 -16.9419 -16.8653 -16.8088 -16.7968 -16.7803 -16.7667 -16.7278
   -16.6467 -16.6342  -1.4999  -0.1443   3.8140   5.3666   9.0427  11.8307

          k =-0.0000-0.6667 0.6667 (  6295 PWs)   bands (ev):

   -16.9569 -16.9424 -16.8629 -16.8022 -16.7974 -16.7845 -16.7685 -16.7301
   -16.6463 -16.6334  -1.7492   0.1348   3.6375   5.6463   9.2646  13.3681

          k = 0.8333 0.0000 0.0000 (  6254 PWs)   bands (ev):

   -16.9398 -16.9398 -16.8887 -16.8357 -16.8051 -16.7581 -16.7547 -16.7040
   -16.6494 -16.6494  -1.9605   0.3479   5.0375   5.0375   8.4588   9.0980

          k =-0.0833-0.9167 0.9167 (  6263 PWs)   bands (ev):

   -16.9446 -16.9412 -16.8736 -16.8463 -16.7928 -16.7673 -16.7470 -16.7196
   -16.6471 -16.6441  -1.4185  -0.2813   4.6782   5.0003   8.6777   9.2115

          k =-0.0000-0.8333 0.8333 (  6256 PWs)   bands (ev):

   -16.9515 -16.9420 -16.8638 -16.8371 -16.7844 -16.7770 -16.7544 -16.7296
   -16.6462 -16.6376  -1.0626  -0.6230   4.1316   5.1135   8.8135  10.3124

          k =-1.0000 0.0000 0.0000 (  6314 PWs)   bands (ev):

   -16.9415 -16.9415 -16.8648 -16.8648 -16.7798 -16.7798 -16.7292 -16.7292
   -16.6465 -16.6465  -0.8759  -0.8759   4.9247   4.9247   8.6412   8.6412

          k = 0.3333 0.1667 0.0000 (  6236 PWs)   bands (ev):

   -16.9279 -16.9227 -16.9082 -16.8626 -16.8468 -16.7358 -16.7058 -16.6869
   -16.6771 -16.6631  -4.0413   4.0614   6.1888   6.9945   9.8646  10.0598

          k = 0.4167 0.2500-0.0833 (  6245 PWs)   bands (ev):

   -16.9343 -16.9294 -16.8997 -16.8541 -16.8357 -16.7456 -16.7141 -16.6967
   -16.6670 -16.6569  -3.6571   2.9288   5.5971   6.7203   9.7575  10.6205

          k = 0.5000 0.3333-0.1667 (  6255 PWs)   bands (ev):

   -16.9399 -16.9341 -16.8899 -16.8461 -16.8285 -16.7504 -16.7212 -16.7094
   -16.6591 -16.6517  -3.1594   1.7828   5.2415   6.4089   9.5515  11.1103

          k =-0.4167-0.5833 0.7500 (  6257 PWs)   bands (ev):

   -16.9439 -16.9365 -16.8822 -16.8389 -16.8271 -16.7487 -16.7288 -16.7194
   -16.6548 -16.6477  -2.6444   0.8451   5.0538   6.1839   9.4032  11.2467

          k =-0.3333-0.5000 0.6667 (  6258 PWs)   bands (ev):

   -16.9454 -16.9372 -16.8792 -16.8342 -16.8291 -16.7441 -16.7359 -16.7222
   -16.6536 -16.6462  -2.3843   0.4396   4.9956   6.1028   9.3508  11.2535

          k = 0.5000 0.1667 0.0000 (  6250 PWs)   bands (ev):

   -16.9335 -16.9309 -16.9051 -16.8488 -16.8214 -16.7660 -16.7144 -16.6887
   -16.6651 -16.6586  -3.5167   2.7967   5.4996   6.1174   9.5277  10.4969

          k = 0.5833 0.2500-0.0833 (  6256 PWs)   bands (ev):

   -16.9413 -16.9359 -16.8922 -16.8393 -16.8117 -16.7746 -16.7245 -16.7024
   -16.6571 -16.6505  -3.0510   1.8526   4.9404   5.8561   9.7937  10.8314

          k =-0.3333-0.6667 0.8333 (  6250 PWs)   bands (ev):

   -16.9482 -16.9388 -16.8791 -16.8302 -16.8087 -16.7752 -16.7352 -16.7163
   -16.6523 -16.6430  -2.5201   0.9533   4.5398   5.6716   9.7973  11.4735

          k =-0.2500-0.5833 0.7500 (  6262 PWs)   bands (ev):

   -16.9517 -16.9406 -16.8702 -16.8233 -16.8120 -16.7686 -16.7455 -16.7253
   -16.6495 -16.6391  -2.1263   0.3819   4.2889   5.6552   9.8153  11.5653

          k =-0.1667-0.5000 0.6667 (  6259 PWs)   bands (ev):

   -16.9512 -16.9413 -16.8684 -16.8275 -16.8126 -16.7634 -16.7452 -16.7280
   -16.6485 -16.6399  -2.2341   0.5332   4.2071   5.8106   9.9162  11.5284

          k =-0.0833-0.4167 0.5833 (  6250 PWs)   bands (ev):

   -16.9466 -16.9407 -16.8748 -16.8380 -16.8145 -16.7628 -16.7296 -16.7257
   -16.6495 -16.6456  -2.7178   1.2609   4.3437   6.1023  10.0704  11.4274

          k =-0.0000-0.3333 0.5000 (  6263 PWs)   bands (ev):

   -16.9387 -16.9383 -16.8871 -16.8469 -16.8233 -16.7565 -16.7213 -16.7106
   -16.6559 -16.6520  -3.2355   2.1405   4.7825   6.4563  10.1493  10.9234

          k = 0.6667 0.1667 0.0000 (  6267 PWs)   bands (ev):

   -16.9390 -16.9383 -16.8960 -16.8292 -16.7977 -16.7929 -16.7325 -16.6961
   -16.6539 -16.6524  -2.7974   1.5349   4.9982   5.4009   9.1730  10.1442

          k =-0.2500-0.7500 0.9167 (  6257 PWs)   bands (ev):

   -16.9474 -16.9413 -16.8795 -16.8185 -16.8048 -16.7846 -16.7444 -16.7132
   -16.6490 -16.6431  -2.2726   0.7738   4.4650   5.2074   9.4956  10.6603

          k =-0.1667-0.6667 0.8333 (  6271 PWs)   bands (ev):

   -16.9538 -16.9431 -16.8656 -16.8095 -16.8014 -16.7851 -16.7565 -16.7271
   -16.6463 -16.6362  -1.7878   0.1654   4.0020   5.2098   9.6056  11.8950

          k =-0.0833-0.5833 0.7500 (  6259 PWs)   bands (ev):

   -16.9560 -16.9440 -16.8602 -16.8086 -16.7952 -16.7859 -16.7632 -16.7321
   -16.6452 -16.6343  -1.7471   0.1230   3.7597   5.3914   9.7770  12.6283

          k = 0.0000-0.5000 0.6667 (  6258 PWs)   bands (ev):

   -16.9533 -16.9434 -16.8634 -16.8240 -16.8018 -16.7742 -16.7512 -16.7307
   -16.6460 -16.6378  -2.1953   0.6514   3.8439   5.7126  10.0076  12.3241

          k =-0.1667-0.8333 1.0000 (  6257 PWs)   bands (ev):

   -16.9433 -16.9433 -16.8796 -16.8287 -16.8056 -16.7637 -16.7553 -16.7128
   -16.6461 -16.6461  -1.9016   0.3040   4.7231   4.9193   9.0493   9.5687

          k =-0.0833-0.7500 0.9167 (  6252 PWs)   bands (ev):

   -16.9509 -16.9446 -16.8621 -16.8309 -16.7942 -16.7683 -16.7600 -16.7302
   -16.6442 -16.6384  -1.3640  -0.2844   4.2114   4.8749   9.3307  10.3943

          k =-0.0000-0.6667 0.8333 (  6266 PWs)   bands (ev):

   -16.9558 -16.9449 -16.8569 -16.8133 -16.7911 -16.7747 -16.7745 -16.7349
   -16.6438 -16.6338  -1.2771  -0.3522   3.7971   5.0593   9.5123  11.8513

          k =-1.0000 0.1667 0.0000 (  6274 PWs)   bands (ev):

   -16.9450 -16.9450 -16.8567 -16.8567 -16.7803 -16.7803 -16.7362 -16.7362
   -16.6435 -16.6435  -0.8557  -0.8557   4.6933   4.6933   9.1808   9.1808

          k =-0.3333-0.6667 1.0000 (  6242 PWs)   bands (ev):

   -16.9460 -16.9432 -16.8766 -16.8298 -16.8000 -16.7848 -16.7353 -16.7184
   -16.6472 -16.6457  -2.5603   1.1520   4.3481   5.5281  10.5771  10.8289

          k =-0.2500-0.5833 0.9167 (  6255 PWs)   bands (ev):

   -16.9524 -16.9452 -16.8626 -16.8195 -16.7952 -16.7872 -16.7497 -16.7306
   -16.6446 -16.6381  -2.0329   0.4619   4.0177   5.2339  10.6993  11.3989

          k =-0.1667-0.5000 0.8333 (  6256 PWs)   bands (ev):

   -16.9548 -16.9458 -16.8571 -16.8138 -16.7944 -16.7867 -16.7582 -16.7347
   -16.6438 -16.6354  -1.7451   0.1113   3.9165   5.1211  10.6994  11.4246

          k =-0.1667-0.6667 1.0000 (  6246 PWs)   bands (ev):

   -16.9503 -16.9480 -16.8608 -16.8132 -16.8075 -16.7747 -16.7579 -16.7309
   -16.6416 -16.6395  -1.7388   0.1633   4.1819   4.7742  10.4228  10.7342

          k =-0.0833-0.5833 0.9167 (  6250 PWs)   bands (ev):

   -16.9547 -16.9492 -16.8470 -16.8135 -16.7976 -16.7751 -16.7690 -16.7427
   -16.6400 -16.6349  -1.3044  -0.2928   3.9321   4.6338  10.6968  11.9442

          k =-0.0000-0.5000 0.8333 (  6241 PWs)   bands (ev):

   -16.9553 -16.9484 -16.8495 -16.8049 -16.8019 -16.7804 -16.7679 -16.7403
   -16.6409 -16.6345  -1.5130  -0.0708   3.8213   4.8340  10.9054  12.1610

          k =-1.0000 0.3333 0.0000 (  6252 PWs)   bands (ev):

   -16.9508 -16.9508 -16.8392 -16.8392 -16.7827 -16.7827 -16.7507 -16.7507
   -16.6383 -16.6383  -0.8139  -0.8139   4.3176   4.3176  10.4847  10.4847

          k =-1.0000 0.5000 0.0000 (  6228 PWs)   bands (ev):

   -16.9533 -16.9533 -16.8282 -16.8282 -16.7861 -16.7861 -16.7581 -16.7581
   -16.6360 -16.6360  -0.7923  -0.7923   4.1569   4.1569  11.9525  11.9525

     the Fermi energy is     7.8331 ev

!    total energy              =    -427.30353981 Ry
     estimated scf accuracy    <          1.2E-13 Ry
     smearing contrib. (-TS)   =      -0.00000256 Ry
     internal energy E=F+TS    =    -427.30353725 Ry

     The total energy is F=E-TS. E is the sum of the following terms:
     one-electron contribution =    -283.70277814 Ry
     hartree contribution      =     167.24511865 Ry
     xc contribution           =    -116.58416357 Ry
     ewald contribution        =    -194.26171420 Ry

     convergence has been achieved in   9 iterations

     Forces acting on atoms (cartesian axes, Ry/au):

     atom    1 type  1   force =     0.00000000   -0.00000000    0.00000000
     atom    2 type  1   force =    -0.00000000    0.00000000   -0.00000000

     Total force =     0.000000     Total SCF correction =     0.000000


     Computing stress (Cartesian axis) and pressure

          total   stress  (Ry/bohr**3)                   (kbar)     P=        1.56
   0.00001058  -0.00000000   0.00000000            1.56       -0.00        0.00
  -0.00000000   0.00001058   0.00000000           -0.00        1.56        0.00
   0.00000000   0.00000000   0.00001058            0.00        0.00        1.56


     BFGS Geometry Optimization
     Energy error            =      2.7E-06 Ry
     Gradient error          =      2.6E-31 Ry/Bohr
     Cell gradient error     =      1.6E+00 kbar

     number of scf cycles    =   1
     number of bfgs steps    =   0

     enthalpy           new  =    -427.3035398088 Ry

     new trust radius        =       0.0009478953 bohr
     new conv_thr            =            1.0E-12 Ry

     new unit-cell volume =    321.34622 a.u.^3 (    47.61860 Ang^3 )
     density =      5.06546 g/cm^3

CELL_PARAMETERS (alat= 10.87000000)
  -0.000000000   0.500132247   0.500132247
   0.500132247   0.000000000   0.500132247
   0.500132247   0.500132247   0.000000000

ATOMIC_POSITIONS (alat)
Ge               0.0000000000       -0.0000000000        0.0000000000
Ge               0.2500661235        0.2500661235        0.2500661235



     Writing config-only to output data dir ./Ge.save/ :
     XML data file
     NEW-OLD atomic charge density approx. for the potential
     New effective cutoffs (rho, wfc):  439.47  109.94

     Check: negative core charge=   -0.000001

     total cpu time spent up to now is       49.9 secs

     Self-consistent Calculation

     iteration #  1     ecut=   110.00 Ry     beta= 0.70
     Davidson diagonalization with overlap
     ethr =  1.00E-06,  avg # of iterations =  2.0

     Threshold (ethr) on eigenvalues was too large:
     Diagonalizing with lowered threshold

     Davidson diagonalization with overlap
     ethr =  3.58E-11,  avg # of iterations =  4.0

     total cpu time spent up to now is       60.0 secs

     total energy              =    -427.30354209 Ry
     estimated scf accuracy    <          7.7E-09 Ry

     iteration #  2     ecut=   110.00 Ry     beta= 0.70
     Davidson diagonalization with overlap
     ethr =  2.74E-11,  avg # of iterations =  2.0

     total cpu time spent up to now is       64.1 secs

     total energy              =    -427.30354210 Ry
     estimated scf accuracy    <          5.1E-10 Ry

     iteration #  3     ecut=   110.00 Ry     beta= 0.70
     Davidson diagonalization with overlap
     ethr =  1.82E-12,  avg # of iterations =  2.2

     total cpu time spent up to now is       68.2 secs

     total energy              =    -427.30354210 Ry
     estimated scf accuracy    <          1.3E-11 Ry

     iteration #  4     ecut=   110.00 Ry     beta= 0.70
     Davidson diagonalization with overlap
     ethr =  1.00E-13,  avg # of iterations =  2.3

     total cpu time spent up to now is       72.3 secs

     End of self-consistent calculation

          k = 0.0000 0.0000 0.0000 (  6231 PWs)   bands (ev):

   -16.9203 -16.9203 -16.9203 -16.8885 -16.8885 -16.7030 -16.7030 -16.7030
   -16.6942 -16.6942  -4.5794   7.3973   7.8182   7.8182   7.8182  10.3476

          k = 0.0833 0.0833-0.0833 (  6258 PWs)   bands (ev):

   -16.9240 -16.9240 -16.9193 -16.8835 -16.8835 -16.7099 -16.7099 -16.7042
   -16.6881 -16.6881  -4.4985   6.1454   7.6631   7.6631   8.5404  10.5565

          k = 0.1666 0.1666-0.1666 (  6234 PWs)   bands (ev):

   -16.9307 -16.9307 -16.9165 -16.8734 -16.8734 -16.7193 -16.7193 -16.7074
   -16.6805 -16.6805  -4.2591   4.6185   7.3296   7.3296   8.5837  11.0017

          k = 0.2499 0.2499-0.2499 (  6246 PWs)   bands (ev):

   -16.9362 -16.9362 -16.9126 -16.8637 -16.8637 -16.7272 -16.7272 -16.7119
   -16.6747 -16.6747  -3.8736   3.1573   6.9879   6.9879   8.3249  11.3829

          k = 0.3332 0.3332-0.3332 (  6237 PWs)   bands (ev):

   -16.9398 -16.9398 -16.9086 -16.8566 -16.8566 -16.7324 -16.7324 -16.7165
   -16.6709 -16.6709  -3.3758   1.8618   6.7170   6.7170   8.0737  11.5411

          k = 0.4166 0.4166-0.4166 (  6243 PWs)   bands (ev):

   -16.9415 -16.9415 -16.9056 -16.8529 -16.8529 -16.7349 -16.7349 -16.7199
   -16.6689 -16.6689  -2.8650   0.8625   6.5472   6.5472   7.9092  11.5475

          k =-0.4999-0.4999 0.4999 (  6266 PWs)   bands (ev):

   -16.9420 -16.9420 -16.9045 -16.8518 -16.8518 -16.7356 -16.7356 -16.7212
   -16.6683 -16.6683  -2.6107   0.4439   6.4896   6.4896   7.8528  11.5330

          k = 0.1666 0.0000 0.0000 (  6254 PWs)   bands (ev):

   -16.9242 -16.9227 -16.9227 -16.8850 -16.8783 -16.7208 -16.6996 -16.6996
   -16.6973 -16.6840  -4.4714   6.0560   7.3841   7.3841   9.1129  10.0278

          k = 0.2499 0.0833-0.0833 (  6231 PWs)   bands (ev):

   -16.9312 -16.9272 -16.9202 -16.8782 -16.8676 -16.7325 -16.7083 -16.6995
   -16.6890 -16.6781  -4.2841   4.9204   7.0083   7.0597   9.4256  10.0993

          k = 0.3332 0.1666-0.1666 (  6249 PWs)   bands (ev):

   -16.9385 -16.9329 -16.9147 -16.8688 -16.8568 -16.7420 -16.7178 -16.7045
   -16.6811 -16.6716  -3.9453   3.5460   6.6602   6.6722   9.2158  10.6274

          k = 0.4166 0.2499-0.2499 (  6262 PWs)   bands (ev):

   -16.9439 -16.9375 -16.9081 -16.8602 -16.8491 -16.7474 -16.7258 -16.7118
   -16.6750 -16.6662  -3.4788   2.2370   6.2707   6.4352   8.9425  11.0718

          k = 0.4999 0.3332-0.3332 (  6269 PWs)   bands (ev):

   -16.9470 -16.9407 -16.9020 -16.8535 -16.8462 -16.7474 -16.7325 -16.7195
   -16.6704 -16.6631  -2.9526   1.1421   5.9637   6.3198   8.7299  11.2673

          k =-0.4166-0.5832 0.5832 (  6264 PWs)   bands (ev):

   -16.9479 -16.9429 -16.8980 -16.8487 -16.8475 -16.7426 -16.7380 -16.7255
   -16.6672 -16.6624  -2.5689   0.4953   5.7685   6.3316   8.6147  11.3697

          k =-0.3332-0.4999 0.4999 (  6259 PWs)   bands (ev):

   -16.9467 -16.9441 -16.8978 -16.8514 -16.8461 -16.7420 -16.7357 -16.7275
   -16.6655 -16.6642  -2.6600   0.6402   5.6997   6.4660   8.6084  11.4978

          k =-0.2499-0.4166 0.4166 (  6256 PWs)   bands (ev):

   -16.9438 -16.9435 -16.9014 -16.8566 -16.8471 -16.7430 -16.7324 -16.7211
   -16.6686 -16.6655  -3.1281   1.4762   5.7677   6.7099   8.7087  11.5875

          k =-0.1666-0.3332 0.3332 (  6238 PWs)   bands (ev):

   -16.9416 -16.9384 -16.9077 -16.8632 -16.8528 -16.7396 -16.7291 -16.7109
   -16.6754 -16.6677  -3.6471   2.6574   5.9823   7.0371   8.8948  11.3470

          k =-0.0833-0.2499 0.2499 (  6243 PWs)   bands (ev):

   -16.9370 -16.9318 -16.9143 -16.8713 -16.8626 -16.7318 -16.7232 -16.7012
   -16.6843 -16.6723  -4.0750   3.9887   6.3602   7.3938   9.0898  10.9551

          k =-0.0000-0.1666 0.1666 (  6223 PWs)   bands (ev):

   -16.9304 -16.9252 -16.9191 -16.8796 -16.8742 -16.7213 -16.7153 -16.6960
   -16.6925 -16.6793  -4.3645   5.2747   6.9481   7.6618   9.0144  10.5909

          k = 0.3332 0.0000 0.0000 (  6238 PWs)   bands (ev):

   -16.9288 -16.9288 -16.9277 -16.8749 -16.8560 -16.7481 -16.7066 -16.6904
   -16.6904 -16.6788  -4.1489   4.5495   6.6121   6.6121   9.4177  10.2715

          k = 0.4166 0.0833-0.0833 (  6246 PWs)   bands (ev):

   -16.9379 -16.9333 -16.9209 -16.8666 -16.8435 -16.7615 -16.7154 -16.6926
   -16.6829 -16.6732  -3.8589   3.5875   6.1689   6.2667   9.4330  10.4166

          k = 0.4999 0.1666-0.1666 (  6259 PWs)   bands (ev):

   -16.9464 -16.9380 -16.9106 -16.8570 -16.8338 -16.7703 -16.7256 -16.7031
   -16.6754 -16.6643  -3.4306   2.4496   5.6454   6.0301   9.5462  10.7478

          k = 0.5832 0.2499-0.2499 (  6249 PWs)   bands (ev):

   -16.9528 -16.9420 -16.8994 -16.8480 -16.8299 -16.7721 -16.7354 -16.7155
   -16.6692 -16.6573  -2.9100   1.3774   5.1827   5.9265   9.4364  11.2847

          k =-0.3332-0.6665 0.6665 (  6274 PWs)   bands (ev):

   -16.9563 -16.9451 -16.8899 -16.8403 -16.8329 -16.7663 -16.7446 -16.7265
   -16.6645 -16.6535  -2.4386   0.5942   4.8470   5.9626   9.3443  11.5068

          k =-0.2499-0.5832 0.5832 (  6265 PWs)   bands (ev):

   -16.9566 -16.9471 -16.8849 -16.8409 -16.8348 -16.7545 -16.7521 -16.7336
   -16.6616 -16.6536  -2.3542   0.4698   4.6662   6.1331   9.3449  11.6301

          k =-0.1666-0.4999 0.4999 (  6260 PWs)   bands (ev):

   -16.9534 -16.9478 -16.8866 -16.8505 -16.8337 -16.7555 -16.7396 -16.7354
   -16.6607 -16.6579  -2.7496   1.0955   4.6659   6.4206   9.4349  11.7991

          k =-0.0833-0.4166 0.4166 (  6258 PWs)   bands (ev):

   -16.9472 -16.9464 -16.8948 -16.8585 -16.8391 -16.7524 -16.7353 -16.7216
   -16.6661 -16.6621  -3.2769   2.0816   4.8900   6.7882   9.5619  11.8014

          k =-0.0000-0.3332 0.3332 (  6245 PWs)   bands (ev):

   -16.9427 -16.9390 -16.9059 -16.8653 -16.8499 -16.7436 -16.7305 -16.7068
   -16.6771 -16.6661  -3.7401   3.1201   5.4277   7.1607   9.5529  11.3137

          k = 0.4999 0.0000 0.0000 (  6254 PWs)   bands (ev):

   -16.9366 -16.9366 -16.9251 -16.8589 -16.8284 -16.7796 -16.7215 -16.6823
   -16.6784 -16.6784  -3.6170   3.0821   5.9034   5.9034   8.8779  10.4285

          k = 0.5832 0.0833-0.0833 (  6258 PWs)   bands (ev):

   -16.9445 -16.9406 -16.9156 -16.8489 -16.8153 -16.7934 -16.7315 -16.6944
   -16.6720 -16.6670  -3.2306   2.2525   5.4343   5.6475   8.9777  10.2984

          k = 0.6665 0.1666-0.1666 (  6254 PWs)   bands (ev):

   -16.9536 -16.9443 -16.9009 -16.8385 -16.8090 -16.7988 -16.7426 -16.7105
   -16.6660 -16.6563  -2.7301   1.3507   4.8210   5.5277   9.1906  10.7817

          k =-0.2499-0.7498 0.7498 (  6263 PWs)   bands (ev):

   -16.9603 -16.9474 -16.8867 -16.8286 -16.8112 -16.7946 -16.7539 -16.7257
   -16.6613 -16.6489  -2.2095   0.5703   4.2998   5.5537   9.2335  11.8684

          k =-0.1666-0.6665 0.6665 (  6270 PWs)   bands (ev):

   -16.9633 -16.9496 -16.8776 -16.8208 -16.8194 -16.7841 -16.7638 -16.7352
   -16.6583 -16.6458  -1.9644   0.2484   3.9740   5.7224   9.3234  12.5872

          k =-0.0833-0.5832 0.5832 (  6263 PWs)   bands (ev):

   -16.9619 -16.9504 -16.8756 -16.8348 -16.8190 -16.7681 -16.7657 -16.7382
   -16.6573 -16.6480  -2.2678   0.6521   3.9054   6.0168   9.5002  12.7152

          k = 0.0000-0.4999 0.4999 (  6259 PWs)   bands (ev):

   -16.9561 -16.9495 -16.8816 -16.8497 -16.8263 -16.7633 -16.7451 -16.7356
   -16.6586 -16.6552  -2.7907   1.3835   4.1796   6.3987   9.6760  12.4912

          k = 0.6665 0.0000 0.0000 (  6242 PWs)   bands (ev):

   -16.9438 -16.9438 -16.9151 -16.8382 -16.8126 -16.7981 -16.7411 -16.6942
   -16.6670 -16.6670  -2.8849   1.6713   5.3639   5.3639   8.5391   9.7718

          k = 0.7498 0.0833-0.0833 (  6250 PWs)   bands (ev):

   -16.9502 -16.9467 -16.9026 -16.8268 -16.8256 -16.7854 -16.7526 -16.7079
   -16.6622 -16.6588  -2.4125   0.9476   4.9278   5.2145   8.7205   9.6706

          k =-0.1666-0.8331 0.8331 (  6251 PWs)   bands (ev):

   -16.9586 -16.9492 -16.8856 -16.8291 -16.8154 -16.7806 -16.7648 -16.7257
   -16.6585 -16.6498  -1.8721   0.2534   4.3010   5.2129   8.9054  10.4448

          k =-0.0833-0.7498 0.7498 (  6267 PWs)   bands (ev):

   -16.9645 -16.9508 -16.8744 -16.8181 -16.8061 -16.7896 -16.7760 -16.7372
   -16.6563 -16.6438  -1.5068  -0.1520   3.8079   5.3589   9.0330  11.8190

          k = 0.0000-0.6665 0.6665 (  6295 PWs)   bands (ev):

   -16.9658 -16.9514 -16.8721 -16.8114 -16.8067 -16.7938 -16.7778 -16.7395
   -16.6559 -16.6430  -1.7558   0.1270   3.6316   5.6384   9.2545  13.3546

          k = 0.8331 0.0000 0.0000 (  6254 PWs)   bands (ev):

   -16.9487 -16.9487 -16.8977 -16.8448 -16.8144 -16.7675 -16.7641 -16.7135
   -16.6589 -16.6589  -1.9668   0.3398   5.0301   5.0301   8.4498   9.0886

          k =-0.0833-0.9164 0.9164 (  6263 PWs)   bands (ev):

   -16.9535 -16.9502 -16.8827 -16.8555 -16.8021 -16.7767 -16.7564 -16.7290
   -16.6567 -16.6537  -1.4253  -0.2890   4.6712   4.9930   8.6685   9.2020

          k =-0.0000-0.8331 0.8331 (  6256 PWs)   bands (ev):

   -16.9604 -16.9509 -16.8729 -16.8462 -16.7937 -16.7863 -16.7637 -16.7390
   -16.6558 -16.6472  -1.0698  -0.6303   4.1252   5.1060   8.8042  10.3020

          k =-0.9997 0.0000 0.0000 (  6314 PWs)   bands (ev):

   -16.9505 -16.9505 -16.8739 -16.8739 -16.7891 -16.7891 -16.7386 -16.7386
   -16.6561 -16.6561  -0.8831  -0.8831   4.9174   4.9174   8.6321   8.6321

          k = 0.3332 0.1666 0.0000 (  6236 PWs)   bands (ev):

   -16.9369 -16.9317 -16.9173 -16.8717 -16.8560 -16.7452 -16.7152 -16.6964
   -16.6866 -16.6726  -4.0460   4.0507   6.1805   6.9852   9.8510  10.0496

          k = 0.4166 0.2499-0.0833 (  6245 PWs)   bands (ev):

   -16.9432 -16.9384 -16.9088 -16.8633 -16.8449 -16.7550 -16.7236 -16.7062
   -16.6765 -16.6665  -3.6620   2.9192   5.5892   6.7113   9.7448  10.6094

          k = 0.4999 0.3332-0.1666 (  6255 PWs)   bands (ev):

   -16.9489 -16.9431 -16.8990 -16.8552 -16.8377 -16.7597 -16.7306 -16.7189
   -16.6686 -16.6612  -3.1648   1.7743   5.2337   6.4002   9.5391  11.0995

          k =-0.4166-0.5832 0.7498 (  6257 PWs)   bands (ev):

   -16.9529 -16.9454 -16.8912 -16.8480 -16.8363 -16.7580 -16.7382 -16.7289
   -16.6644 -16.6573  -2.6503   0.8376   5.0459   6.1755   9.3909  11.2364

          k =-0.3332-0.4999 0.6665 (  6258 PWs)   bands (ev):

   -16.9543 -16.9461 -16.8883 -16.8434 -16.8383 -16.7535 -16.7453 -16.7317
   -16.6631 -16.6558  -2.3906   0.4326   4.9877   6.0945   9.3385  11.2434

          k = 0.4999 0.1666 0.0000 (  6250 PWs)   bands (ev):

   -16.9425 -16.9399 -16.9141 -16.8580 -16.8306 -16.7753 -16.7239 -16.6982
   -16.6746 -16.6681  -3.5217   2.7868   5.4919   6.1091   9.5179  10.4839

          k = 0.5832 0.2499-0.0833 (  6256 PWs)   bands (ev):

   -16.9502 -16.9448 -16.9013 -16.8485 -16.8209 -16.7839 -16.7339 -16.7119
   -16.6666 -16.6601  -3.0564   1.8435   4.9331   5.8480   9.7832  10.8187

          k =-0.3332-0.6665 0.8331 (  6250 PWs)   bands (ev):

   -16.9571 -16.9478 -16.8882 -16.8394 -16.8180 -16.7845 -16.7446 -16.7258
   -16.6618 -16.6526  -2.5260   0.9452   4.5327   5.6637   9.7862  11.4611

          k =-0.2499-0.5832 0.7498 (  6262 PWs)   bands (ev):

   -16.9607 -16.9496 -16.8793 -16.8325 -16.8212 -16.7779 -16.7549 -16.7347
   -16.6591 -16.6487  -2.1327   0.3744   4.2819   5.6473   9.8039  11.5541

          k =-0.1666-0.4999 0.6665 (  6259 PWs)   bands (ev):

   -16.9602 -16.9503 -16.8776 -16.8367 -16.8218 -16.7727 -16.7546 -16.7374
   -16.6581 -16.6495  -2.2403   0.5255   4.2002   5.8026   9.9043  11.5176

          k =-0.0833-0.4166 0.5832 (  6250 PWs)   bands (ev):

   -16.9556 -16.9497 -16.8839 -16.8472 -16.8238 -16.7721 -16.7390 -16.7351
   -16.6591 -16.6552  -2.7236   1.2525   4.3369   6.0940  10.0580  11.4166

          k =-0.0000-0.3332 0.4999 (  6263 PWs)   bands (ev):

   -16.9477 -16.9473 -16.8962 -16.8560 -16.8325 -16.7658 -16.7307 -16.7200
   -16.6654 -16.6616  -3.2408   2.1312   4.7754   6.4476  10.1363  10.9125

          k = 0.6665 0.1666-0.0000 (  6267 PWs)   bands (ev):

   -16.9480 -16.9473 -16.9050 -16.8384 -16.8070 -16.8021 -16.7420 -16.7056
   -16.6634 -16.6620  -2.8030   1.5258   4.9909   5.3932   9.1635  10.1334

          k =-0.2499-0.7498 0.9164 (  6257 PWs)   bands (ev):

   -16.9564 -16.9503 -16.8886 -16.8277 -16.8140 -16.7939 -16.7538 -16.7226
   -16.6586 -16.6527  -2.2787   0.7654   4.4582   5.2000   9.4856  10.6491

          k =-0.1666-0.6665 0.8331 (  6271 PWs)   bands (ev):

   -16.9628 -16.9521 -16.8747 -16.8187 -16.8106 -16.7944 -16.7658 -16.7366
   -16.6558 -16.6458  -1.7944   0.1576   3.9956   5.2023   9.5954  11.8827

          k =-0.0833-0.5832 0.7498 (  6259 PWs)   bands (ev):

   -16.9649 -16.9529 -16.8693 -16.8179 -16.8045 -16.7952 -16.7725 -16.7416
   -16.6547 -16.6439  -1.7538   0.1152   3.7536   5.3838   9.7663  12.6157

          k = 0.0000-0.4999 0.6665 (  6258 PWs)   bands (ev):

   -16.9622 -16.9524 -16.8725 -16.8332 -16.8111 -16.7835 -16.7606 -16.7401
   -16.6556 -16.6474  -2.2016   0.6432   3.8378   5.7047   9.9963  12.3121

          k =-0.1666-0.8331 0.9997 (  6257 PWs)   bands (ev):

   -16.9523 -16.9523 -16.8887 -16.8379 -16.8149 -16.7730 -16.7647 -16.7222
   -16.6557 -16.6557  -1.9079   0.2959   4.7160   4.9121   9.0398   9.5588

          k =-0.0833-0.7498 0.9164 (  6252 PWs)   bands (ev):

   -16.9598 -16.9535 -16.8712 -16.8401 -16.8035 -16.7776 -16.7693 -16.7396
   -16.6538 -16.6480  -1.3708  -0.2921   4.2049   4.8677   9.3209  10.3837

          k = 0.0000-0.6665 0.8331 (  6266 PWs)   bands (ev):

   -16.9647 -16.9539 -16.8660 -16.8225 -16.8004 -16.7840 -16.7838 -16.7443
   -16.6534 -16.6434  -1.2842  -0.3597   3.7910   5.0520   9.5023  11.8395

          k =-0.9997 0.1666 0.0000 (  6274 PWs)   bands (ev):

   -16.9540 -16.9540 -16.8658 -16.8658 -16.7896 -16.7896 -16.7456 -16.7456
   -16.6530 -16.6530  -0.8629  -0.8629   4.6863   4.6863   9.1713   9.1713

          k =-0.3332-0.6665 0.9997 (  6242 PWs)   bands (ev):

   -16.9550 -16.9521 -16.8856 -16.8390 -16.8092 -16.7941 -16.7448 -16.7279
   -16.6567 -16.6553  -2.5662   1.1434   4.3414   5.5203  10.5664  10.8158

          k =-0.2499-0.5832 0.9164 (  6255 PWs)   bands (ev):

   -16.9613 -16.9542 -16.8717 -16.8287 -16.8045 -16.7965 -16.7591 -16.7400
   -16.6542 -16.6477  -2.0393   0.4538   4.0113   5.2264  10.6871  11.3876

          k =-0.1666-0.4999 0.8331 (  6256 PWs)   bands (ev):

   -16.9637 -16.9547 -16.8662 -16.8230 -16.8037 -16.7959 -16.7676 -16.7441
   -16.6534 -16.6450  -1.7518   0.1036   3.9101   5.1138  10.6870  11.4143

          k =-0.1666-0.6665 0.9997 (  6246 PWs)   bands (ev):

   -16.9592 -16.9569 -16.8699 -16.8224 -16.8167 -16.7840 -16.7673 -16.7403
   -16.6512 -16.6491  -1.7454   0.1553   4.1754   4.7672  10.4122  10.7229

          k =-0.0833-0.5832 0.9164 (  6250 PWs)   bands (ev):

   -16.9636 -16.9582 -16.8561 -16.8227 -16.8069 -16.7844 -16.7784 -16.7521
   -16.6496 -16.6445  -1.3114  -0.3004   3.9259   4.6270  10.6856  11.9318

          k = 0.0000-0.4999 0.8331 (  6241 PWs)   bands (ev):

   -16.9643 -16.9574 -16.8587 -16.8141 -16.8112 -16.7898 -16.7772 -16.7497
   -16.6505 -16.6441  -1.5198  -0.0786   3.8152   4.8269  10.8935  12.1489

          k =-0.9997 0.3332-0.0000 (  6252 PWs)   bands (ev):

   -16.9597 -16.9597 -16.8483 -16.8483 -16.7920 -16.7920 -16.7601 -16.7601
   -16.6479 -16.6479  -0.8213  -0.8213   4.3110   4.3110  10.4740  10.4740

          k =-0.9997 0.4999 0.0000 (  6228 PWs)   bands (ev):

   -16.9622 -16.9622 -16.8374 -16.8374 -16.7954 -16.7954 -16.7675 -16.7675
   -16.6456 -16.6456  -0.7997  -0.7997   4.1505   4.1505  11.9393  11.9394

     the Fermi energy is     7.8226 ev

!    total energy              =    -427.30354210 Ry
     estimated scf accuracy    <          5.5E-13 Ry
     smearing contrib. (-TS)   =      -0.00000267 Ry
     internal energy E=F+TS    =    -427.30353943 Ry

     The total energy is F=E-TS. E is the sum of the following terms:
     one-electron contribution =    -283.78807231 Ry
     hartree contribution      =     167.27821131 Ry
     xc contribution           =    -116.58333173 Ry
     ewald contribution        =    -194.21034670 Ry

     convergence has been achieved in   4 iterations

     Forces acting on atoms (cartesian axes, Ry/au):

     atom    1 type  1   force =     0.00000000    0.00000000    0.00000000
     atom    2 type  1   force =     0.00000000    0.00000000    0.00000000

     Total force =     0.000000     Total SCF correction =     0.000000


     Computing stress (Cartesian axis) and pressure

          total   stress  (Ry/bohr**3)                   (kbar)     P=        1.09
   0.00000740   0.00000000   0.00000000            1.09        0.00        0.00
  -0.00000000   0.00000740   0.00000000           -0.00        1.09        0.00
   0.00000000   0.00000000   0.00000740            0.00        0.00        1.09

     Energy error            =      2.3E-06 Ry
     Gradient error          =      0.0E+00 Ry/Bohr
     Cell gradient error     =      1.1E+00 kbar

     number of scf cycles    =   2
     number of bfgs steps    =   1

     enthalpy           old  =    -427.3035398088 Ry
     enthalpy           new  =    -427.3035420961 Ry

     CASE: enthalpy          _new < enthalpy          _old

     new trust radius        =       0.0010428227 bohr
     new conv_thr            =            1.0E-14 Ry

     new unit-cell volume =    321.62671 a.u.^3 (    47.66016 Ang^3 )
     density =      5.06104 g/cm^3

CELL_PARAMETERS (alat= 10.87000000)
  -0.000000000   0.500277719   0.500277719
   0.500277719  -0.000000000   0.500277719
   0.500277719   0.500277719   0.000000000

ATOMIC_POSITIONS (alat)
Ge               0.0000000000       -0.0000000000        0.0000000000
Ge               0.2501388594        0.2501388594        0.2501388594



     Writing config-only to output data dir ./Ge.save/ :
     XML data file
     NEW-OLD atomic charge density approx. for the potential
     New effective cutoffs (rho, wfc):  439.21  109.88

     Check: negative core charge=   -0.000001

     total cpu time spent up to now is       74.1 secs

     Self-consistent Calculation

     iteration #  1     ecut=   110.00 Ry     beta= 0.70
     Davidson diagonalization with overlap
     ethr =  1.00E-06,  avg # of iterations =  2.0

     Threshold (ethr) on eigenvalues was too large:
     Diagonalizing with lowered threshold

     Davidson diagonalization with overlap
     ethr =  4.39E-11,  avg # of iterations =  4.0

     total cpu time spent up to now is       84.4 secs

     total energy              =    -427.30354365 Ry
     estimated scf accuracy    <          9.4E-09 Ry

     iteration #  2     ecut=   110.00 Ry     beta= 0.70
     Davidson diagonalization with overlap
     ethr =  3.36E-11,  avg # of iterations =  2.0

     total cpu time spent up to now is       88.5 secs

     total energy              =    -427.30354365 Ry
     estimated scf accuracy    <          6.2E-10 Ry

     iteration #  3     ecut=   110.00 Ry     beta= 0.70
     Davidson diagonalization with overlap
     ethr =  2.23E-12,  avg # of iterations =  2.2

     total cpu time spent up to now is       92.5 secs

     total energy              =    -427.30354365 Ry
     estimated scf accuracy    <          1.6E-11 Ry

     iteration #  4     ecut=   110.00 Ry     beta= 0.70
     Davidson diagonalization with overlap
     ethr =  1.00E-13,  avg # of iterations =  2.4

     total cpu time spent up to now is       96.7 secs

     total energy              =    -427.30354365 Ry
     estimated scf accuracy    <          8.2E-13 Ry

     iteration #  5     ecut=   110.00 Ry     beta= 0.70
     Davidson diagonalization with overlap
     ethr =  1.00E-13,  avg # of iterations =  1.2

     total cpu time spent up to now is      100.3 secs

     total energy              =    -427.30354365 Ry
     estimated scf accuracy    <          1.9E-14 Ry

     iteration #  6     ecut=   110.00 Ry     beta= 0.70
     Davidson diagonalization with overlap
     ethr =  1.00E-13,  avg # of iterations =  1.0

     total cpu time spent up to now is      103.8 secs

     End of self-consistent calculation

          k = 0.0000 0.0000 0.0000 (  6231 PWs)   bands (ev):

   -16.9302 -16.9302 -16.9302 -16.8985 -16.8985 -16.7134 -16.7134 -16.7134
   -16.7046 -16.7046  -4.5840   7.3787   7.8073   7.8073   7.8073  10.3362

          k = 0.0833 0.0833-0.0833 (  6258 PWs)   bands (ev):

   -16.9339 -16.9339 -16.9292 -16.8935 -16.8935 -16.7202 -16.7202 -16.7146
   -16.6985 -16.6985  -4.5032   6.1317   7.6524   7.6524   8.5256  10.5449

          k = 0.1666 0.1666-0.1666 (  6234 PWs)   bands (ev):

   -16.9406 -16.9406 -16.9264 -16.8834 -16.8834 -16.7297 -16.7297 -16.7178
   -16.6910 -16.6910  -4.2640   4.6068   7.3192   7.3192   8.5696  10.9898

          k = 0.2499 0.2499-0.2499 (  6246 PWs)   bands (ev):

   -16.9461 -16.9461 -16.9225 -16.8737 -16.8737 -16.7376 -16.7376 -16.7223
   -16.6852 -16.6852  -3.8788   3.1471   6.9779   6.9779   8.3112  11.3708

          k = 0.3331 0.3331-0.3331 (  6237 PWs)   bands (ev):

   -16.9496 -16.9496 -16.9186 -16.8667 -16.8667 -16.7428 -16.7428 -16.7268
   -16.6814 -16.6814  -3.3815   1.8529   6.7072   6.7072   8.0602  11.5292

          k = 0.4164 0.4164-0.4164 (  6243 PWs)   bands (ev):

   -16.9514 -16.9514 -16.9156 -16.8629 -16.8629 -16.7453 -16.7453 -16.7303
   -16.6794 -16.6794  -2.8713   0.8547   6.5375   6.5375   7.8958  11.5359

          k =-0.4997-0.4997 0.4997 (  6266 PWs)   bands (ev):

   -16.9519 -16.9519 -16.9145 -16.8618 -16.8618 -16.7460 -16.7460 -16.7315
   -16.6788 -16.6788  -2.6174   0.4366   6.4800   6.4800   7.8394  11.5215

          k = 0.1666 0.0000 0.0000 (  6254 PWs)   bands (ev):

   -16.9341 -16.9326 -16.9326 -16.8950 -16.8882 -16.7311 -16.7100 -16.7100
   -16.7078 -16.6944  -4.4761   6.0419   7.3737   7.3737   9.0976  10.0167

          k = 0.2499 0.0833-0.0833 (  6231 PWs)   bands (ev):

   -16.9411 -16.9371 -16.9301 -16.8882 -16.8776 -16.7429 -16.7187 -16.7099
   -16.6995 -16.6886  -4.2890   4.9079   6.9984   7.0494   9.4109  10.0878

          k = 0.3331 0.1666-0.1666 (  6249 PWs)   bands (ev):

   -16.9484 -16.9428 -16.9247 -16.8788 -16.8669 -16.7523 -16.7281 -16.7149
   -16.6916 -16.6820  -3.9505   3.5352   6.6501   6.6626   9.2020  10.6155

          k = 0.4164 0.2499-0.2499 (  6262 PWs)   bands (ev):

   -16.9538 -16.9474 -16.9181 -16.8702 -16.8592 -16.7577 -16.7362 -16.7222
   -16.6854 -16.6767  -3.4844   2.2276   6.2608   6.4257   8.9290  11.0600

          k = 0.4997 0.3331-0.3331 (  6269 PWs)   bands (ev):

   -16.9569 -16.9506 -16.9119 -16.8635 -16.8562 -16.7577 -16.7429 -16.7298
   -16.6809 -16.6736  -2.9588   1.1339   5.9541   6.3104   8.7165  11.2558

          k =-0.4164-0.5830 0.5830 (  6264 PWs)   bands (ev):

   -16.9577 -16.9528 -16.9080 -16.8587 -16.8576 -16.7530 -16.7484 -16.7358
   -16.6777 -16.6729  -2.5756   0.4878   5.7590   6.3221   8.6014  11.3584

          k =-0.3331-0.4997 0.4997 (  6259 PWs)   bands (ev):

   -16.9565 -16.9539 -16.9077 -16.8615 -16.8562 -16.7523 -16.7461 -16.7379
   -16.6759 -16.6747  -2.6666   0.6325   5.6904   6.4564   8.5950  11.4864

          k =-0.2499-0.4164 0.4164 (  6256 PWs)   bands (ev):

   -16.9537 -16.9533 -16.9114 -16.8667 -16.8572 -16.7533 -16.7427 -16.7314
   -16.6791 -16.6760  -3.1341   1.4675   5.7584   6.7000   8.6952  11.5754

          k =-0.1666-0.3331 0.3331 (  6238 PWs)   bands (ev):

   -16.9514 -16.9483 -16.9176 -16.8732 -16.8628 -16.7499 -16.7395 -16.7212
   -16.6859 -16.6782  -3.6526   2.6475   5.9730   7.0270   8.8811  11.3351

          k =-0.0833-0.2499 0.2499 (  6243 PWs)   bands (ev):

   -16.9468 -16.9417 -16.9242 -16.8813 -16.8727 -16.7422 -16.7336 -16.7116
   -16.6948 -16.6828  -4.0801   3.9774   6.3507   7.3833   9.0755  10.9433

          k =-0.0000-0.1666 0.1666 (  6223 PWs)   bands (ev):

   -16.9403 -16.9351 -16.9290 -16.8896 -16.8842 -16.7317 -16.7257 -16.7064
   -16.7030 -16.6897  -4.3694   5.2619   6.9382   7.6510   8.9995  10.5794

          k = 0.3331 0.0000 0.0000 (  6238 PWs)   bands (ev):

   -16.9387 -16.9387 -16.9376 -16.8849 -16.8660 -16.7584 -16.7170 -16.7008
   -16.7008 -16.6892  -4.1539   4.5368   6.6026   6.6026   9.4070  10.2558

          k = 0.4164 0.0833-0.0833 (  6246 PWs)   bands (ev):

   -16.9477 -16.9432 -16.9308 -16.8766 -16.8536 -16.7718 -16.7258 -16.7030
   -16.6933 -16.6837  -3.8641   3.5759   6.1596   6.2574   9.4221  10.4017

          k = 0.4997 0.1666-0.1666 (  6259 PWs)   bands (ev):

   -16.9563 -16.9479 -16.9206 -16.8671 -16.8439 -16.7806 -16.7359 -16.7135
   -16.6858 -16.6748  -3.4363   2.4394   5.6363   6.0211   9.5344  10.7338

          k = 0.5830 0.2499-0.2499 (  6249 PWs)   bands (ev):

   -16.9626 -16.9518 -16.9093 -16.8581 -16.8400 -16.7824 -16.7457 -16.7259
   -16.6796 -16.6678  -2.9162   1.3684   5.1740   5.9176   9.4241  11.2713

          k =-0.3331-0.6663 0.6663 (  6274 PWs)   bands (ev):

   -16.9662 -16.9549 -16.8998 -16.8504 -16.8430 -16.7765 -16.7549 -16.7368
   -16.6750 -16.6640  -2.4454   0.5862   4.8385   5.9536   9.3317  11.4942

          k =-0.2499-0.5830 0.5830 (  6265 PWs)   bands (ev):

   -16.9664 -16.9570 -16.8949 -16.8510 -16.8449 -16.7648 -16.7624 -16.7439
   -16.6721 -16.6641  -2.3610   0.4619   4.6580   6.1239   9.3320  11.6179

          k =-0.1666-0.4997 0.4997 (  6260 PWs)   bands (ev):

   -16.9633 -16.9576 -16.8965 -16.8605 -16.8438 -16.7658 -16.7500 -16.7458
   -16.6712 -16.6684  -2.7559   1.0868   4.6578   6.4111   9.4216  11.7870

          k =-0.0833-0.4164 0.4164 (  6258 PWs)   bands (ev):

   -16.9571 -16.9563 -16.9048 -16.8686 -16.8492 -16.7627 -16.7456 -16.7320
   -16.6766 -16.6726  -3.2827   2.0718   4.8819   6.7783   9.5481  11.7890

          k =-0.0000-0.3331 0.3331 (  6245 PWs)   bands (ev):

   -16.9526 -16.9489 -16.9158 -16.8754 -16.8600 -16.7539 -16.7408 -16.7172
   -16.6875 -16.6766  -3.7455   3.1093   5.4194   7.1504   9.5386  11.3016

          k = 0.4997 0.0000 0.0000 (  6254 PWs)   bands (ev):

   -16.9465 -16.9465 -16.9350 -16.8690 -16.8385 -16.7898 -16.7319 -16.6927
   -16.6889 -16.6889  -3.6225   3.0706   5.8945   5.8945   8.8676  10.4151

          k = 0.5830 0.0833-0.0833 (  6258 PWs)   bands (ev):

   -16.9544 -16.9505 -16.9255 -16.8590 -16.8254 -16.8035 -16.7418 -16.7048
   -16.6824 -16.6774  -3.2364   2.2419   5.4258   5.6388   8.9673  10.2858

          k = 0.6663 0.1666-0.1666 (  6254 PWs)   bands (ev):

   -16.9634 -16.9542 -16.9108 -16.8485 -16.8191 -16.8089 -16.7529 -16.7209
   -16.6765 -16.6669  -2.7364   1.3411   4.8130   5.5191   9.1799  10.7689

          k =-0.2499-0.7496 0.7496 (  6263 PWs)   bands (ev):

   -16.9701 -16.9572 -16.8967 -16.8387 -16.8213 -16.8048 -16.7642 -16.7360
   -16.6718 -16.6594  -2.2163   0.5615   4.2923   5.5451   9.2225  11.8544

          k =-0.1666-0.6663 0.6663 (  6270 PWs)   bands (ev):

   -16.9731 -16.9594 -16.8876 -16.8310 -16.8295 -16.7943 -16.7740 -16.7456
   -16.6688 -16.6564  -1.9715   0.2401   3.9668   5.7136   9.3120  12.5726

          k =-0.0833-0.5830 0.5830 (  6263 PWs)   bands (ev):

   -16.9717 -16.9603 -16.8856 -16.8449 -16.8291 -16.7784 -16.7759 -16.7486
   -16.6679 -16.6585  -2.2746   0.6433   3.8984   6.0077   9.4882  12.7012

          k = 0.0000-0.4997 0.4997 (  6259 PWs)   bands (ev):

   -16.9660 -16.9593 -16.8915 -16.8598 -16.8364 -16.7735 -16.7554 -16.7460
   -16.6691 -16.6657  -2.7969   1.3740   4.1724   6.3892   9.6632  12.4781

          k = 0.6663 0.0000 0.0000 (  6242 PWs)   bands (ev):

   -16.9536 -16.9536 -16.9250 -16.8483 -16.8228 -16.8083 -16.7514 -16.7046
   -16.6775 -16.6775  -2.8910   1.6611   5.3555   5.3555   8.5291   9.7606

          k = 0.7496 0.0833-0.0833 (  6250 PWs)   bands (ev):

   -16.9601 -16.9566 -16.9125 -16.8369 -16.8357 -16.7956 -16.7629 -16.7183
   -16.6727 -16.6693  -2.4190   0.9381   4.9198   5.2062   8.7104   9.6596

          k =-0.1666-0.8329 0.8329 (  6251 PWs)   bands (ev):

   -16.9684 -16.9590 -16.8955 -16.8392 -16.8256 -16.7908 -16.7751 -16.7361
   -16.6690 -16.6603  -1.8791   0.2446   4.2938   5.2046   8.8950  10.4331

          k =-0.0833-0.7496 0.7496 (  6267 PWs)   bands (ev):

   -16.9743 -16.9607 -16.8844 -16.8282 -16.8163 -16.7998 -16.7863 -16.7475
   -16.6668 -16.6544  -1.5143  -0.1604   3.8012   5.3504   9.0224  11.8061

          k = 0.0000-0.6663 0.6663 (  6295 PWs)   bands (ev):

   -16.9756 -16.9612 -16.8821 -16.8216 -16.8169 -16.8040 -16.7880 -16.7498
   -16.6664 -16.6536  -1.7632   0.1184   3.6250   5.6296   9.2434  13.3396

          k = 0.8329 0.0000 0.0000 (  6254 PWs)   bands (ev):

   -16.9586 -16.9586 -16.9077 -16.8549 -16.8245 -16.7777 -16.7744 -16.7239
   -16.6694 -16.6694  -1.9737   0.3308   5.0220   5.0220   8.4399   9.0783

          k =-0.0833-0.9162 0.9162 (  6263 PWs)   bands (ev):

   -16.9634 -16.9600 -16.8927 -16.8655 -16.8123 -16.7869 -16.7667 -16.7394
   -16.6672 -16.6642  -1.4327  -0.2974   4.6635   4.9849   8.6585   9.1915

          k =-0.0000-0.8329 0.8329 (  6256 PWs)   bands (ev):

   -16.9702 -16.9608 -16.8829 -16.8563 -16.8039 -16.7966 -16.7740 -16.7494
   -16.6663 -16.6578  -1.0776  -0.6384   4.1182   5.0978   8.7940  10.2905

          k =-0.9994 0.0000 0.0000 (  6314 PWs)   bands (ev):

   -16.9604 -16.9604 -16.8838 -16.8838 -16.7993 -16.7993 -16.7489 -16.7489
   -16.6666 -16.6666  -0.8909  -0.8909   4.9094   4.9094   8.6222   8.6222

          k = 0.3331 0.1666 0.0000 (  6236 PWs)   bands (ev):

   -16.9467 -16.9416 -16.9272 -16.8817 -16.8660 -16.7555 -16.7256 -16.7068
   -16.6971 -16.6831  -4.0511   4.0389   6.1714   6.9750   9.8360  10.0384

          k = 0.4164 0.2499-0.0833 (  6245 PWs)   bands (ev):

   -16.9531 -16.9483 -16.9187 -16.8733 -16.8550 -16.7653 -16.7339 -16.7166
   -16.6870 -16.6770  -3.6674   2.9086   5.5805   6.7014   9.7308  10.5972

          k = 0.4997 0.3331-0.1666 (  6255 PWs)   bands (ev):

   -16.9588 -16.9530 -16.9089 -16.8653 -16.8478 -16.7700 -16.7410 -16.7292
   -16.6791 -16.6718  -3.1707   1.7650   5.2250   6.3907   9.5254  11.0876

          k =-0.4164-0.5830 0.7496 (  6257 PWs)   bands (ev):

   -16.9627 -16.9553 -16.9012 -16.8581 -16.8464 -16.7683 -16.7485 -16.7392
   -16.6749 -16.6678  -2.6568   0.8294   5.0372   6.1662   9.3773  11.2252

          k =-0.3331-0.4997 0.6663 (  6258 PWs)   bands (ev):

   -16.9641 -16.9560 -16.8983 -16.8535 -16.8484 -16.7638 -16.7556 -16.7420
   -16.6736 -16.6663  -2.3974   0.4249   4.9790   6.0854   9.3249  11.2324

          k = 0.4997 0.1666 0.0000 (  6250 PWs)   bands (ev):

   -16.9523 -16.9497 -16.9240 -16.8680 -16.8407 -16.7855 -16.7342 -16.7086
   -16.6851 -16.6786  -3.5273   2.7759   5.4835   6.0999   9.5070  10.4696

          k = 0.5830 0.2499-0.0833 (  6256 PWs)   bands (ev):

   -16.9601 -16.9547 -16.9112 -16.8586 -16.8310 -16.7941 -16.7442 -16.7223
   -16.6771 -16.6706  -3.0624   1.8336   4.9251   5.8391   9.7716  10.8048

          k =-0.3331-0.6663 0.8329 (  6250 PWs)   bands (ev):

   -16.9669 -16.9576 -16.8982 -16.8495 -16.8281 -16.7948 -16.7549 -16.7361
   -16.6723 -16.6631  -2.5326   0.9362   4.5249   5.6551   9.7741  11.4475

          k =-0.2499-0.5830 0.7496 (  6262 PWs)   bands (ev):

   -16.9705 -16.9594 -16.8893 -16.8426 -16.8314 -16.7882 -16.7652 -16.7450
   -16.6696 -16.6592  -2.1397   0.3661   4.2742   5.6386   9.7913  11.5417

          k =-0.1666-0.4997 0.6663 (  6259 PWs)   bands (ev):

   -16.9700 -16.9601 -16.8875 -16.8468 -16.8319 -16.7830 -16.7649 -16.7478
   -16.6686 -16.6600  -2.2472   0.5171   4.1927   5.7937   9.8913  11.5058

          k =-0.0833-0.4164 0.5830 (  6250 PWs)   bands (ev):

   -16.9654 -16.9595 -16.8938 -16.8573 -16.8339 -16.7824 -16.7494 -16.7455
   -16.6696 -16.6657  -2.7299   1.2432   4.3294   6.0848  10.0444  11.4046

          k =-0.0000-0.3331 0.4997 (  6263 PWs)   bands (ev):

   -16.9575 -16.9571 -16.9062 -16.8661 -16.8427 -16.7761 -16.7411 -16.7304
   -16.6759 -16.6721  -3.2467   2.1211   4.7677   6.4380  10.1220  10.9005

          k = 0.6663 0.1666-0.0000 (  6267 PWs)   bands (ev):

   -16.9578 -16.9571 -16.9150 -16.8485 -16.8171 -16.8123 -16.7523 -16.7160
   -16.6739 -16.6725  -2.8092   1.5158   4.9829   5.3848   9.1529  10.1214

          k =-0.2499-0.7496 0.9162 (  6257 PWs)   bands (ev):

   -16.9662 -16.9601 -16.8986 -16.8378 -16.8241 -16.8041 -16.7641 -16.7330
   -16.6691 -16.6632  -2.2854   0.7561   4.4507   5.1918   9.4747  10.6368

          k =-0.1666-0.6663 0.8329 (  6271 PWs)   bands (ev):

   -16.9726 -16.9619 -16.8847 -16.8289 -16.8208 -16.8046 -16.7761 -16.7469
   -16.6664 -16.6564  -1.8016   0.1490   3.9886   5.1941   9.5841  11.8692

          k =-0.0833-0.5830 0.7496 (  6259 PWs)   bands (ev):

   -16.9747 -16.9628 -16.8793 -16.8280 -16.8147 -16.8053 -16.7828 -16.7519
   -16.6653 -16.6544  -1.7612   0.1067   3.7468   5.3754   9.7546  12.6018

          k = 0.0000-0.4997 0.6663 (  6258 PWs)   bands (ev):

   -16.9720 -16.9622 -16.8825 -16.8433 -16.8213 -16.7937 -16.7709 -16.7505
   -16.6661 -16.6579  -2.2084   0.6342   3.8310   5.6959   9.9838  12.2989

          k =-0.1666-0.8329 0.9994 (  6257 PWs)   bands (ev):

   -16.9621 -16.9621 -16.8987 -16.8480 -16.8250 -16.7833 -16.7749 -16.7326
   -16.6662 -16.6662  -1.9149   0.2869   4.7083   4.9041   9.0294   9.5479

          k =-0.0833-0.7496 0.9162 (  6252 PWs)   bands (ev):

   -16.9696 -16.9634 -16.8812 -16.8501 -16.8137 -16.7879 -16.7796 -16.7499
   -16.6643 -16.6585  -1.3783  -0.3005   4.1978   4.8598   9.3102  10.3721

          k = 0.0000-0.6663 0.8329 (  6266 PWs)   bands (ev):

   -16.9745 -16.9637 -16.8761 -16.8327 -16.8106 -16.7942 -16.7940 -16.7546
   -16.6639 -16.6540  -1.2919  -0.3680   3.7844   5.0439   9.4912  11.8266

          k =-0.9994 0.1666 0.0000 (  6274 PWs)   bands (ev):

   -16.9638 -16.9638 -16.8758 -16.8758 -16.7999 -16.7999 -16.7559 -16.7559
   -16.6636 -16.6636  -0.8708  -0.8708   4.6786   4.6786   9.1608   9.1608

          k =-0.3331-0.6663 0.9994 (  6242 PWs)   bands (ev):

   -16.9648 -16.9620 -16.8956 -16.8491 -16.8194 -16.8043 -16.7551 -16.7382
   -16.6672 -16.6658  -2.5726   1.1338   4.3341   5.5118  10.5547  10.8015

          k =-0.2499-0.5830 0.9162 (  6255 PWs)   bands (ev):

   -16.9711 -16.9640 -16.8817 -16.8388 -16.8147 -16.8067 -16.7694 -16.7504
   -16.6647 -16.6583  -2.0463   0.4449   4.0043   5.2183  10.6738  11.3752

          k =-0.1666-0.4997 0.8329 (  6256 PWs)   bands (ev):

   -16.9735 -16.9646 -16.8763 -16.8332 -16.8138 -16.8061 -16.7779 -16.7544
   -16.6639 -16.6555  -1.7592   0.0952   3.9032   5.1058  10.6734  11.4029

          k =-0.1666-0.6663 0.9994 (  6246 PWs)   bands (ev):

   -16.9690 -16.9667 -16.8799 -16.8325 -16.8268 -16.7943 -16.7776 -16.7507
   -16.6617 -16.6596  -1.7526   0.1464   4.1683   4.7595  10.4006  10.7105

          k =-0.0833-0.5830 0.9162 (  6250 PWs)   bands (ev):

   -16.9734 -16.9680 -16.8662 -16.8328 -16.8171 -16.7946 -16.7886 -16.7624
   -16.6602 -16.6550  -1.3190  -0.3088   3.9191   4.6194  10.6734  11.9181

          k = 0.0000-0.4997 0.8329 (  6241 PWs)   bands (ev):

   -16.9741 -16.9672 -16.8687 -16.8243 -16.8213 -16.8000 -16.7875 -16.7600
   -16.6610 -16.6546  -1.5273  -0.0872   3.8085   4.8192  10.8806  12.1356

          k =-0.9994 0.3331 0.0000 (  6252 PWs)   bands (ev):

   -16.9696 -16.9696 -16.8584 -16.8584 -16.8022 -16.8022 -16.7703 -16.7703
   -16.6584 -16.6584  -0.8293  -0.8293   4.3038   4.3038  10.4623  10.4623

          k =-0.9994 0.4997 0.0000 (  6228 PWs)   bands (ev):

   -16.9721 -16.9721 -16.8474 -16.8474 -16.8056 -16.8056 -16.7777 -16.7777
   -16.6562 -16.6562  -0.8078  -0.8078   4.1435   4.1435  11.9249  11.9249

     the Fermi energy is     7.8109 ev

!    total energy              =    -427.30354365 Ry
     estimated scf accuracy    <          3.2E-15 Ry
     smearing contrib. (-TS)   =      -0.00000280 Ry
     internal energy E=F+TS    =    -427.30354085 Ry

     The total energy is F=E-TS. E is the sum of the following terms:
     one-electron contribution =    -283.88183258 Ry
     hartree contribution      =     167.31457987 Ry
     xc contribution           =    -116.58241433 Ry
     ewald contribution        =    -194.15387382 Ry

     convergence has been achieved in   6 iterations

     Forces acting on atoms (cartesian axes, Ry/au):

     atom    1 type  1   force =     0.00000000   -0.00000000   -0.00000000
     atom    2 type  1   force =    -0.00000000    0.00000000    0.00000000

     Total force =     0.000000     Total SCF correction =     0.000000


     Computing stress (Cartesian axis) and pressure

          total   stress  (Ry/bohr**3)                   (kbar)     P=        0.55
   0.00000376   0.00000000   0.00000000            0.55        0.00        0.00
   0.00000000   0.00000376   0.00000000            0.00        0.55        0.00
  -0.00000000   0.00000000   0.00000376           -0.00        0.00        0.55

     Energy error            =      1.6E-06 Ry
     Gradient error          =      3.3E-31 Ry/Bohr
     Cell gradient error     =      5.5E-01 kbar

     number of scf cycles    =   3
     number of bfgs steps    =   2

     enthalpy           old  =    -427.3035420961 Ry
     enthalpy           new  =    -427.3035436513 Ry

     CASE: enthalpy          _new < enthalpy          _old

     new trust radius        =       0.0010779939 bohr
     new conv_thr            =            1.0E-14 Ry

     new unit-cell volume =    321.91679 a.u.^3 (    47.70315 Ang^3 )
     density =      5.05648 g/cm^3

CELL_PARAMETERS (alat= 10.87000000)
  -0.000000000   0.500428075   0.500428075
   0.500428075  -0.000000000   0.500428075
   0.500428075   0.500428075   0.000000000

ATOMIC_POSITIONS (alat)
Ge               0.0000000000       -0.0000000000       -0.0000000000
Ge               0.2502140375        0.2502140375        0.2502140375



     Writing config-only to output data dir ./Ge.save/ :
     XML data file
     NEW-OLD atomic charge density approx. for the potential
     New effective cutoffs (rho, wfc):  438.95  109.81

     Check: negative core charge=   -0.000001

     total cpu time spent up to now is      105.5 secs

     Self-consistent Calculation

     iteration #  1     ecut=   110.00 Ry     beta= 0.70
     Davidson diagonalization with overlap
     ethr =  1.00E-06,  avg # of iterations =  2.0

     Threshold (ethr) on eigenvalues was too large:
     Diagonalizing with lowered threshold

     Davidson diagonalization with overlap
     ethr =  4.70E-11,  avg # of iterations =  4.0

     total cpu time spent up to now is      115.8 secs

     total energy              =    -427.30354420 Ry
     estimated scf accuracy    <       0.00000001 Ry

     iteration #  2     ecut=   110.00 Ry     beta= 0.70
     Davidson diagonalization with overlap
     ethr =  3.61E-11,  avg # of iterations =  2.0

     total cpu time spent up to now is      119.9 secs

     total energy              =    -427.30354420 Ry
     estimated scf accuracy    <          6.7E-10 Ry

     iteration #  3     ecut=   110.00 Ry     beta= 0.70
     Davidson diagonalization with overlap
     ethr =  2.39E-12,  avg # of iterations =  2.2

     total cpu time spent up to now is      124.0 secs

     total energy              =    -427.30354420 Ry
     estimated scf accuracy    <          1.7E-11 Ry

     iteration #  4     ecut=   110.00 Ry     beta= 0.70
     Davidson diagonalization with overlap
     ethr =  1.00E-13,  avg # of iterations =  2.5

     total cpu time spent up to now is      128.1 secs

     total energy              =    -427.30354420 Ry
     estimated scf accuracy    <          7.8E-13 Ry

     iteration #  5     ecut=   110.00 Ry     beta= 0.70
     Davidson diagonalization with overlap
     ethr =  1.00E-13,  avg # of iterations =  1.1

     total cpu time spent up to now is      131.7 secs

     total energy              =    -427.30354420 Ry
     estimated scf accuracy    <          2.1E-14 Ry

     iteration #  6     ecut=   110.00 Ry     beta= 0.70
     Davidson diagonalization with overlap
     ethr =  1.00E-13,  avg # of iterations =  1.0

     total cpu time spent up to now is      135.3 secs

     End of self-consistent calculation

          k = 0.0000 0.0000 0.0000 (  6231 PWs)   bands (ev):

   -16.9405 -16.9405 -16.9405 -16.9088 -16.9088 -16.7241 -16.7241 -16.7241
   -16.7154 -16.7154  -4.5888   7.3595   7.7960   7.7960   7.7960  10.3245

          k = 0.0833 0.0833-0.0833 (  6258 PWs)   bands (ev):

   -16.9442 -16.9442 -16.9395 -16.9038 -16.9038 -16.7310 -16.7310 -16.7253
   -16.7093 -16.7093  -4.5081   6.1176   7.6413   7.6413   8.5104  10.5329

          k = 0.1665 0.1665-0.1665 (  6234 PWs)   bands (ev):

   -16.9508 -16.9508 -16.9367 -16.8938 -16.8938 -16.7404 -16.7404 -16.7285
   -16.7018 -16.7018  -4.2691   4.5947   7.3085   7.3085   8.5550  10.9774

          k = 0.2498 0.2498-0.2498 (  6246 PWs)   bands (ev):

   -16.9563 -16.9563 -16.9328 -16.8841 -16.8841 -16.7483 -16.7483 -16.7330
   -16.6960 -16.6960  -3.8843   3.1366   6.9675   6.9675   8.2971  11.3583

          k = 0.3330 0.3330-0.3330 (  6237 PWs)   bands (ev):

   -16.9598 -16.9598 -16.9288 -16.8771 -16.8771 -16.7535 -16.7535 -16.7375
   -16.6922 -16.6922  -3.3875   1.8438   6.6971   6.6971   8.0463  11.5170

          k = 0.4163 0.4163-0.4163 (  6243 PWs)   bands (ev):

   -16.9616 -16.9616 -16.9258 -16.8733 -16.8733 -16.7560 -16.7560 -16.7410
   -16.6902 -16.6902  -2.8778   0.8466   6.5275   6.5275   7.8819  11.5240

          k =-0.4996-0.4996 0.4996 (  6266 PWs)   bands (ev):

   -16.9620 -16.9620 -16.9247 -16.8722 -16.8722 -16.7567 -16.7567 -16.7422
   -16.6896 -16.6896  -2.6243   0.4291   6.4700   6.4700   7.8256  11.5097

          k = 0.1665 0.0000 0.0000 (  6254 PWs)   bands (ev):

   -16.9443 -16.9428 -16.9428 -16.9053 -16.8986 -16.7418 -16.7207 -16.7207
   -16.7186 -16.7053  -4.4810   6.0273   7.3630   7.3630   9.0818  10.0053

          k = 0.2498 0.0833-0.0833 (  6231 PWs)   bands (ev):

   -16.9513 -16.9473 -16.9403 -16.8986 -16.8880 -16.7535 -16.7295 -16.7206
   -16.7103 -16.6994  -4.2940   4.8950   6.9881   7.0387   9.3957  10.0759

          k = 0.3330 0.1665-0.1665 (  6249 PWs)   bands (ev):

   -16.9586 -16.9530 -16.9349 -16.8892 -16.8772 -16.7630 -16.7389 -16.7256
   -16.7024 -16.6929  -3.9558   3.5240   6.6396   6.6526   9.1877  10.6031

          k = 0.4163 0.2498-0.2498 (  6262 PWs)   bands (ev):

   -16.9640 -16.9576 -16.9283 -16.8806 -16.8696 -16.7683 -16.7469 -16.7330
   -16.6963 -16.6876  -3.4902   2.2179   6.2506   6.4159   8.9150  11.0478

          k = 0.4996 0.3330-0.3330 (  6269 PWs)   bands (ev):

   -16.9671 -16.9608 -16.9222 -16.8739 -16.8666 -16.7684 -16.7536 -16.7405
   -16.6917 -16.6844  -2.9652   1.1253   5.9441   6.3007   8.7027  11.2440

          k =-0.4163-0.5828 0.5828 (  6264 PWs)   bands (ev):

   -16.9679 -16.9629 -16.9183 -16.8691 -16.8680 -16.7636 -16.7591 -16.7465
   -16.6885 -16.6837  -2.5825   0.4800   5.7492   6.3124   8.5876  11.3467

          k =-0.3330-0.4996 0.4996 (  6259 PWs)   bands (ev):

   -16.9667 -16.9641 -16.9180 -16.8719 -16.8666 -16.7630 -16.7568 -16.7486
   -16.6868 -16.6856  -2.6733   0.6246   5.6807   6.4465   8.5812  11.4747

          k =-0.2498-0.4163 0.4163 (  6256 PWs)   bands (ev):

   -16.9639 -16.9635 -16.9217 -16.8770 -16.8676 -16.7640 -16.7534 -16.7421
   -16.6899 -16.6868  -3.1403   1.4586   5.7488   6.6899   8.6812  11.5629

          k =-0.1665-0.3330 0.3330 (  6238 PWs)   bands (ev):

   -16.9616 -16.9585 -16.9279 -16.8836 -16.8732 -16.7606 -16.7502 -16.7320
   -16.6967 -16.6891  -3.6582   2.6373   5.9634   7.0165   8.8669  11.3227

          k =-0.0833-0.2498 0.2498 (  6243 PWs)   bands (ev):

   -16.9570 -16.9519 -16.9345 -16.8916 -16.8830 -16.7528 -16.7443 -16.7224
   -16.7055 -16.6937  -4.0853   3.9657   6.3410   7.3725   9.0608  10.9311

          k =-0.0000-0.1665 0.1665 (  6223 PWs)   bands (ev):

   -16.9505 -16.9453 -16.9392 -16.8999 -16.8945 -16.7424 -16.7364 -16.7171
   -16.7138 -16.7006  -4.3743   5.2487   6.9281   7.6399   8.9841  10.5674

          k = 0.3330 0.0000 0.0000 (  6238 PWs)   bands (ev):

   -16.9489 -16.9489 -16.9478 -16.8953 -16.8764 -16.7691 -16.7278 -16.7116
   -16.7116 -16.7001  -4.1591   4.5237   6.5927   6.5927   9.3960  10.2395

          k = 0.4163 0.0833-0.0833 (  6246 PWs)   bands (ev):

   -16.9579 -16.9534 -16.9410 -16.8870 -16.8640 -16.7824 -16.7366 -16.7138
   -16.7041 -16.6945  -3.8696   3.5640   6.1500   6.2479   9.4110  10.3863

          k = 0.4996 0.1665-0.1665 (  6259 PWs)   bands (ev):

   -16.9664 -16.9581 -16.9308 -16.8775 -16.8543 -16.7912 -16.7467 -16.7243
   -16.6966 -16.6857  -3.4421   2.4288   5.6270   6.0117   9.5222  10.7194

          k = 0.5828 0.2498-0.2498 (  6249 PWs)   bands (ev):

   -16.9728 -16.9620 -16.9196 -16.8685 -16.8505 -16.7930 -16.7564 -16.7366
   -16.6905 -16.6787  -2.9226   1.3590   5.1650   5.9083   9.4113  11.2574

          k =-0.3330-0.6661 0.6661 (  6274 PWs)   bands (ev):

   -16.9763 -16.9651 -16.9101 -16.8608 -16.8535 -16.7871 -16.7656 -16.7475
   -16.6858 -16.6749  -2.4523   0.5778   4.8298   5.9442   9.3187  11.4812

          k =-0.2498-0.5828 0.5828 (  6265 PWs)   bands (ev):

   -16.9766 -16.9672 -16.9052 -16.8614 -16.8553 -16.7754 -16.7730 -16.7546
   -16.6829 -16.6749  -2.3681   0.4537   4.6494   6.1144   9.3187  11.6054

          k =-0.1665-0.4996 0.4996 (  6260 PWs)   bands (ev):

   -16.9734 -16.9678 -16.9068 -16.8709 -16.8542 -16.7764 -16.7606 -16.7565
   -16.6820 -16.6792  -2.7625   1.0778   4.6494   6.4012   9.4079  11.7744

          k =-0.0833-0.4163 0.4163 (  6258 PWs)   bands (ev):

   -16.9672 -16.9665 -16.9151 -16.8789 -16.8597 -16.7734 -16.7563 -16.7427
   -16.6874 -16.6835  -3.2887   2.0617   4.8736   6.7681   9.5339  11.7763

          k =-0.0000-0.3330 0.3330 (  6245 PWs)   bands (ev):

   -16.9628 -16.9591 -16.9261 -16.8857 -16.8704 -16.7646 -16.7515 -16.7280
   -16.6983 -16.6874  -3.7510   3.0981   5.4107   7.1398   9.5238  11.2891

          k = 0.4996 0.0000 0.0000 (  6254 PWs)   bands (ev):

   -16.9567 -16.9567 -16.9452 -16.8793 -16.8489 -16.8004 -16.7426 -16.7036
   -16.6997 -16.6997  -3.6281   3.0589   5.8853   5.8853   8.8571  10.4013

          k = 0.5828 0.0833-0.0833 (  6258 PWs)   bands (ev):

   -16.9645 -16.9607 -16.9357 -16.8694 -16.8359 -16.8141 -16.7525 -16.7156
   -16.6933 -16.6883  -3.2424   2.2309   5.4170   5.6299   8.9566  10.2728

          k = 0.6661 0.1665-0.1665 (  6254 PWs)   bands (ev):

   -16.9736 -16.9644 -16.9211 -16.8590 -16.8296 -16.8195 -16.7636 -16.7317
   -16.6873 -16.6777  -2.7428   1.3311   4.8048   5.5103   9.1688  10.7558

          k =-0.2498-0.7494 0.7494 (  6263 PWs)   bands (ev):

   -16.9802 -16.9674 -16.9070 -16.8492 -16.8318 -16.8154 -16.7749 -16.7467
   -16.6827 -16.6703  -2.2234   0.5525   4.2845   5.5362   9.2111  11.8400

          k =-0.1665-0.6661 0.6661 (  6270 PWs)   bands (ev):

   -16.9832 -16.9696 -16.8980 -16.8414 -16.8400 -16.8049 -16.7847 -16.7563
   -16.6797 -16.6673  -1.9789   0.2315   3.9594   5.7045   9.3003  12.5576

          k =-0.0833-0.5828 0.5828 (  6263 PWs)   bands (ev):

   -16.9818 -16.9704 -16.8959 -16.8553 -16.8396 -16.7890 -16.7865 -16.7592
   -16.6787 -16.6694  -2.2817   0.6342   3.8912   5.9983   9.4758  12.6867

          k = 0.0000-0.4996 0.4996 (  6259 PWs)   bands (ev):

   -16.9761 -16.9695 -16.9019 -16.8702 -16.8469 -16.7842 -16.7660 -16.7567
   -16.6800 -16.6766  -2.8034   1.3643   4.1650   6.3794   9.6499  12.4646

          k = 0.6661 0.0000 0.0000 (  6242 PWs)   bands (ev):

   -16.9638 -16.9638 -16.9352 -16.8587 -16.8332 -16.8188 -16.7621 -16.7154
   -16.6883 -16.6883  -2.8973   1.6506   5.3468   5.3468   8.5188   9.7489

          k = 0.7494 0.0833-0.0833 (  6250 PWs)   bands (ev):

[...]

     iteration #  9     ecut=   110.00 Ry     beta= 0.70
     Davidson diagonalization with overlap
     ethr =  1.00E-13,  avg # of iterations =  2.0

     total cpu time spent up to now is      184.6 secs

     total energy              =    -427.30354757 Ry
     estimated scf accuracy    <          3.2E-14 Ry

     iteration # 10     ecut=   110.00 Ry     beta= 0.70
     Davidson diagonalization with overlap
     ethr =  1.00E-13,  avg # of iterations =  1.0

     total cpu time spent up to now is      188.2 secs

     total energy              =    -427.30354757 Ry
     estimated scf accuracy    <          1.1E-14 Ry

     iteration # 11     ecut=   110.00 Ry     beta= 0.70
     Davidson diagonalization with overlap
     ethr =  1.00E-13,  avg # of iterations =  1.0

     total cpu time spent up to now is      191.8 secs

     End of self-consistent calculation

          k = 0.0000 0.0000 0.0000 (  6231 PWs)   bands (ev):

   -16.9405 -16.9405 -16.9405 -16.9088 -16.9088 -16.7241 -16.7241 -16.7241
   -16.7154 -16.7154  -4.5888   7.3595   7.7960   7.7960   7.7960  10.3245

          k = 0.0833 0.0833-0.0833 (  6261 PWs)   bands (ev):

   -16.9442 -16.9442 -16.9394 -16.9038 -16.9038 -16.7310 -16.7310 -16.7253
   -16.7093 -16.7093  -4.5081   6.1176   7.6413   7.6413   8.5104  10.5329

          k = 0.1665 0.1665-0.1665 (  6252 PWs)   bands (ev):

   -16.9508 -16.9508 -16.9366 -16.8938 -16.8938 -16.7404 -16.7404 -16.7285
   -16.7018 -16.7018  -4.2691   4.5947   7.3085   7.3085   8.5550  10.9774

          k = 0.2498 0.2498-0.2498 (  6255 PWs)   bands (ev):

   -16.9563 -16.9563 -16.9328 -16.8841 -16.8841 -16.7483 -16.7483 -16.7330
   -16.6960 -16.6960  -3.8843   3.1366   6.9675   6.9675   8.2971  11.3583

          k = 0.3330 0.3330-0.3330 (  6273 PWs)   bands (ev):

   -16.9598 -16.9598 -16.9288 -16.8771 -16.8771 -16.7535 -16.7535 -16.7375
   -16.6922 -16.6922  -3.3875   1.8438   6.6971   6.6971   8.0463  11.5170

          k = 0.4163 0.4163-0.4163 (  6261 PWs)   bands (ev):

   -16.9615 -16.9615 -16.9258 -16.8733 -16.8733 -16.7560 -16.7560 -16.7410
   -16.6902 -16.6902  -2.8778   0.8466   6.5275   6.5275   7.8819  11.5240

          k =-0.4996-0.4996 0.4996 (  6266 PWs)   bands (ev):

   -16.9620 -16.9620 -16.9247 -16.8722 -16.8722 -16.7567 -16.7567 -16.7422
   -16.6896 -16.6896  -2.6243   0.4291   6.4700   6.4700   7.8256  11.5097

          k = 0.1665 0.0000 0.0000 (  6270 PWs)   bands (ev):

   -16.9443 -16.9428 -16.9428 -16.9053 -16.8986 -16.7418 -16.7207 -16.7207
   -16.7185 -16.7053  -4.4810   6.0273   7.3630   7.3630   9.0818  10.0053

          k = 0.2498 0.0833-0.0833 (  6249 PWs)   bands (ev):

   -16.9513 -16.9473 -16.9403 -16.8986 -16.8880 -16.7535 -16.7295 -16.7206
   -16.7103 -16.6994  -4.2940   4.8950   6.9881   7.0387   9.3957  10.0759

          k = 0.3330 0.1665-0.1665 (  6256 PWs)   bands (ev):

   -16.9586 -16.9530 -16.9349 -16.8892 -16.8772 -16.7630 -16.7389 -16.7256
   -16.7024 -16.6929  -3.9558   3.5240   6.6396   6.6526   9.1877  10.6031

          k = 0.4163 0.2498-0.2498 (  6275 PWs)   bands (ev):

   -16.9640 -16.9576 -16.9283 -16.8806 -16.8696 -16.7683 -16.7469 -16.7329
   -16.6962 -16.6876  -3.4902   2.2179   6.2506   6.4159   8.9150  11.0478

          k = 0.4996 0.3330-0.3330 (  6269 PWs)   bands (ev):

   -16.9671 -16.9608 -16.9222 -16.8739 -16.8666 -16.7684 -16.7536 -16.7405
   -16.6917 -16.6844  -2.9652   1.1253   5.9441   6.3007   8.7027  11.2440

          k =-0.4163-0.5828 0.5828 (  6281 PWs)   bands (ev):

   -16.9679 -16.9629 -16.9183 -16.8691 -16.8680 -16.7636 -16.7590 -16.7465
   -16.6885 -16.6837  -2.5824   0.4800   5.7492   6.3124   8.5876  11.3467

          k =-0.3330-0.4996 0.4996 (  6281 PWs)   bands (ev):

   -16.9667 -16.9641 -16.9180 -16.8719 -16.8666 -16.7630 -16.7568 -16.7486
   -16.6868 -16.6856  -2.6733   0.6246   5.6807   6.4465   8.5812  11.4747

          k =-0.2498-0.4163 0.4163 (  6268 PWs)   bands (ev):

   -16.9639 -16.9635 -16.9216 -16.8770 -16.8676 -16.7640 -16.7534 -16.7421
   -16.6899 -16.6868  -3.1403   1.4586   5.7488   6.6899   8.6812  11.5612

          k =-0.1665-0.3330 0.3330 (  6262 PWs)   bands (ev):

   -16.9616 -16.9585 -16.9279 -16.8836 -16.8732 -16.7606 -16.7502 -16.7320
   -16.6967 -16.6891  -3.6582   2.6373   5.9634   7.0165   8.8669  11.3227

          k =-0.0833-0.2498 0.2498 (  6249 PWs)   bands (ev):

   -16.9570 -16.9519 -16.9345 -16.8916 -16.8830 -16.7528 -16.7443 -16.7224
   -16.7055 -16.6937  -4.0853   3.9657   6.3410   7.3725   9.0608  10.9311

          k =-0.0000-0.1665 0.1665 (  6249 PWs)   bands (ev):

   -16.9505 -16.9453 -16.9392 -16.8999 -16.8945 -16.7424 -16.7364 -16.7171
   -16.7138 -16.7006  -4.3743   5.2487   6.9281   7.6399   8.9841  10.5675

          k = 0.3330 0.0000 0.0000 (  6258 PWs)   bands (ev):

   -16.9489 -16.9489 -16.9478 -16.8953 -16.8764 -16.7691 -16.7278 -16.7116
   -16.7116 -16.7001  -4.1591   4.5237   6.5927   6.5927   9.3960  10.2395

          k = 0.4163 0.0833-0.0833 (  6262 PWs)   bands (ev):

   -16.9579 -16.9534 -16.9410 -16.8870 -16.8640 -16.7824 -16.7366 -16.7138
   -16.7041 -16.6945  -3.8696   3.5640   6.1500   6.2479   9.4110  10.3863

          k = 0.4996 0.1665-0.1665 (  6266 PWs)   bands (ev):

   -16.9664 -16.9581 -16.9308 -16.8775 -16.8543 -16.7912 -16.7467 -16.7243
   -16.6966 -16.6857  -3.4421   2.4288   5.6270   6.0117   9.5222  10.7194

          k = 0.5828 0.2498-0.2498 (  6262 PWs)   bands (ev):

   -16.9728 -16.9620 -16.9196 -16.8685 -16.8505 -16.7930 -16.7564 -16.7366
   -16.6905 -16.6787  -2.9226   1.3590   5.1650   5.9083   9.4113  11.2574

          k =-0.3330-0.6661 0.6661 (  6274 PWs)   bands (ev):

   -16.9763 -16.9651 -16.9101 -16.8608 -16.8535 -16.7871 -16.7656 -16.7475
   -16.6858 -16.6748  -2.4523   0.5778   4.8298   5.9442   9.3187  11.4812

          k =-0.2498-0.5828 0.5828 (  6295 PWs)   bands (ev):

   -16.9766 -16.9672 -16.9052 -16.8614 -16.8553 -16.7754 -16.7730 -16.7546
   -16.6829 -16.6749  -2.3681   0.4537   4.6494   6.1144   9.3187  11.6054

          k =-0.1665-0.4996 0.4996 (  6260 PWs)   bands (ev):

   -16.9734 -16.9678 -16.9068 -16.8709 -16.8542 -16.7764 -16.7606 -16.7565
   -16.6820 -16.6792  -2.7625   1.0778   4.6494   6.4012   9.4079  11.7744

          k =-0.0833-0.4163 0.4163 (  6273 PWs)   bands (ev):

   -16.9672 -16.9665 -16.9151 -16.8789 -16.8597 -16.7733 -16.7563 -16.7427
   -16.6874 -16.6835  -3.2887   2.0617   4.8736   6.7681   9.5339  11.7764

          k =-0.0000-0.3330 0.3330 (  6271 PWs)   bands (ev):

   -16.9628 -16.9591 -16.9261 -16.8857 -16.8704 -16.7646 -16.7515 -16.7280
   -16.6983 -16.6874  -3.7510   3.0981   5.4107   7.1398   9.5238  11.2891

          k = 0.4996 0.0000 0.0000 (  6254 PWs)   bands (ev):

   -16.9566 -16.9566 -16.9452 -16.8793 -16.8489 -16.8003 -16.7426 -16.7036
   -16.6997 -16.6997  -3.6281   3.0589   5.8853   5.8853   8.8571  10.4013

          k = 0.5828 0.0833-0.0833 (  6272 PWs)   bands (ev):

   -16.9645 -16.9607 -16.9357 -16.8694 -16.8359 -16.8141 -16.7525 -16.7156
   -16.6933 -16.6883  -3.2424   2.2309   5.4170   5.6299   8.9566  10.2728

          k = 0.6661 0.1665-0.1665 (  6257 PWs)   bands (ev):

   -16.9735 -16.9644 -16.9211 -16.8590 -16.8296 -16.8195 -16.7636 -16.7316
   -16.6873 -16.6777  -2.7428   1.3311   4.8048   5.5103   9.1688  10.7558

          k =-0.2498-0.7494 0.7494 (  6275 PWs)   bands (ev):

   -16.9802 -16.9674 -16.9070 -16.8492 -16.8318 -16.8153 -16.7749 -16.7467
   -16.6827 -16.6703  -2.2234   0.5525   4.2845   5.5362   9.2111  11.8400

          k =-0.1665-0.6661 0.6661 (  6294 PWs)   bands (ev):

   -16.9832 -16.9696 -16.8980 -16.8414 -16.8400 -16.8049 -16.7847 -16.7563
   -16.6797 -16.6673  -1.9789   0.2315   3.9594   5.7045   9.3003  12.5576

          k =-0.0833-0.5828 0.5828 (  6283 PWs)   bands (ev):

   -16.9818 -16.9704 -16.8959 -16.8553 -16.8396 -16.7890 -16.7865 -16.7592
   -16.6787 -16.6694  -2.2817   0.6342   3.8912   5.9983   9.4758  12.6867

          k = 0.0000-0.4996 0.4996 (  6269 PWs)   bands (ev):

   -16.9761 -16.9695 -16.9019 -16.8702 -16.8468 -16.7842 -16.7660 -16.7567
   -16.6800 -16.6765  -2.8034   1.3643   4.1650   6.3794   9.6499  12.4646

          k = 0.6661 0.0000 0.0000 (  6258 PWs)   bands (ev):

   -16.9638 -16.9638 -16.9352 -16.8587 -16.8332 -16.8188 -16.7621 -16.7154
   -16.6883 -16.6883  -2.8973   1.6506   5.3468   5.3468   8.5188   9.7489

          k = 0.7494 0.0833-0.0833 (  6267 PWs)   bands (ev):

   -16.9703 -16.9668 -16.9228 -16.8473 -16.8461 -16.8062 -16.7735 -16.7291
   -16.6836 -16.6802  -2.4257   0.9283   4.9116   5.1976   8.6999   9.6481

          k =-0.1665-0.8326 0.8326 (  6273 PWs)   bands (ev):

   -16.9786 -16.9692 -16.9058 -16.8497 -16.8361 -16.8014 -16.7857 -16.7468
   -16.6799 -16.6712  -1.8864   0.2354   4.2863   5.1960   8.8844  10.4210

          k =-0.0833-0.7494 0.7494 (  6280 PWs)   bands (ev):

   -16.9844 -16.9708 -16.8947 -16.8387 -16.8268 -16.8103 -16.7968 -16.7582
   -16.6777 -16.6653  -1.5221  -0.1690   3.7943   5.3417   9.0115  11.7928

          k = 0.0000-0.6661 0.6661 (  6295 PWs)   bands (ev):

   -16.9857 -16.9714 -16.8924 -16.8321 -16.8274 -16.8145 -16.7986 -16.7605
   -16.6773 -16.6645  -1.7707   0.1096   3.6183   5.6206   9.2320  13.3242

          k = 0.8326 0.0000 0.0000 (  6278 PWs)   bands (ev):

   -16.9688 -16.9688 -16.9179 -16.8653 -16.8350 -16.7883 -16.7850 -16.7346
   -16.6803 -16.6803  -1.9808   0.3215   5.0136   5.0136   8.4298   9.0676

          k =-0.0833-0.9159 0.9159 (  6282 PWs)   bands (ev):

   -16.9735 -16.9702 -16.9030 -16.8759 -16.8228 -16.7975 -16.7773 -16.7501
   -16.6781 -16.6751  -1.4403  -0.3061   4.6556   4.9765   8.6482   9.1806

          k =-0.0000-0.8326 0.8326 (  6273 PWs)   bands (ev):

   -16.9804 -16.9710 -16.8932 -16.8667 -16.8144 -16.8071 -16.7846 -16.7600
   -16.6771 -16.6687  -1.0857  -0.6467   4.1110   5.0894   8.7835  10.2786

          k =-0.9991 0.0000 0.0000 (  6314 PWs)   bands (ev):

   -16.9705 -16.9705 -16.8942 -16.8942 -16.8099 -16.8099 -16.7596 -16.7596
   -16.6774 -16.6774  -0.8991  -0.8991   4.9011   4.9011   8.6119   8.6119

          k = 0.3330 0.1665 0.0000 (  6251 PWs)   bands (ev):

   -16.9569 -16.9518 -16.9374 -16.8920 -16.8764 -16.7661 -16.7363 -16.7176
   -16.7078 -16.6939  -4.0563   4.0267   6.1621   6.9645   9.8205  10.0267

          k = 0.4163 0.2498-0.0833 (  6267 PWs)   bands (ev):

   -16.9633 -16.9585 -16.9289 -16.8837 -16.8654 -16.7759 -16.7446 -16.7274
   -16.6978 -16.6878  -3.6731   2.8977   5.5716   6.6912   9.7164  10.5846

          k = 0.4996 0.3330-0.1665 (  6275 PWs)   bands (ev):

   -16.9689 -16.9631 -16.9192 -16.8757 -16.8582 -16.7806 -16.7517 -16.7400
   -16.6899 -16.6826  -3.1768   1.7554   5.2161   6.3809   9.5112  11.0754

          k =-0.4163-0.5828 0.7494 (  6271 PWs)   bands (ev):

   -16.9729 -16.9655 -16.9115 -16.8685 -16.8568 -16.7789 -16.7592 -16.7499
   -16.6857 -16.6787  -2.6635   0.8209   5.0283   6.1567   9.3633  11.2135

          k =-0.3330-0.4996 0.6661 (  6276 PWs)   bands (ev):

   -16.9743 -16.9662 -16.9086 -16.8639 -16.8588 -16.7744 -16.7663 -16.7527
   -16.6845 -16.6772  -2.4045   0.4169   4.9700   6.0759   9.3110  11.2210

          k = 0.4996 0.1665 0.0000 (  6274 PWs)   bands (ev):

   -16.9625 -16.9599 -16.9342 -16.8784 -16.8512 -16.7961 -16.7450 -16.7194
   -16.6959 -16.6895  -3.5330   2.7646   5.4748   6.0904   9.4958  10.4549

          k = 0.5828 0.2498-0.0833 (  6270 PWs)   bands (ev):

   -16.9702 -16.9649 -16.9215 -16.8690 -16.8415 -16.8046 -16.7549 -16.7330
   -16.6879 -16.6814  -3.0686   1.8233   4.9168   5.8299   9.7597  10.7904

          k =-0.3330-0.6661 0.8326 (  6265 PWs)   bands (ev):

   -16.9771 -16.9678 -16.9085 -16.8599 -16.8386 -16.8053 -16.7656 -16.7468
   -16.6832 -16.6740  -2.5393   0.9270   4.5168   5.6461   9.7615  11.4334

          k =-0.2498-0.5828 0.7494 (  6275 PWs)   bands (ev):

   -16.9806 -16.9696 -16.8996 -16.8531 -16.8418 -16.7987 -16.7758 -16.7557
   -16.6804 -16.6701  -2.1470   0.3576   4.2663   5.6297   9.7784  11.5290

          k =-0.1665-0.4996 0.6661 (  6277 PWs)   bands (ev):

   -16.9801 -16.9703 -16.8979 -16.8573 -16.8424 -16.7935 -16.7755 -16.7584
   -16.6795 -16.6709  -2.2543   0.5084   4.1849   5.7846   9.8779  11.4936

          k =-0.0833-0.4163 0.5828 (  6271 PWs)   bands (ev):

   -16.9756 -16.9697 -16.9042 -16.8677 -16.8444 -16.7929 -16.7601 -16.7561
   -16.6805 -16.6765  -2.7365   1.2336   4.3217   6.0754  10.0304  11.3922

          k =-0.0000-0.3330 0.4996 (  6275 PWs)   bands (ev):

   -16.9677 -16.9673 -16.9165 -16.8764 -16.8531 -16.7867 -16.7518 -16.7411
   -16.6868 -16.6830  -3.2527   2.1106   4.7597   6.4282  10.1072  10.8881

          k = 0.6661 0.1665-0.0000 (  6267 PWs)   bands (ev):

   -16.9680 -16.9673 -16.9252 -16.8589 -16.8276 -16.8228 -16.7630 -16.7267
   -16.6847 -16.6833  -2.8156   1.5055   4.9747   5.3762   9.1420  10.1090

          k =-0.2498-0.7494 0.9159 (  6269 PWs)   bands (ev):

   -16.9764 -16.9703 -16.9089 -16.8483 -16.8346 -16.8147 -16.7748 -16.7437
   -16.6799 -16.6741  -2.2923   0.7465   4.4430   5.1834   9.4634  10.6242

          k =-0.1665-0.6661 0.8326 (  6276 PWs)   bands (ev):

   -16.9827 -16.9721 -16.8950 -16.8394 -16.8313 -16.8152 -16.7867 -16.7576
   -16.6772 -16.6673  -1.8091   0.1401   3.9814   5.1857   9.5725  11.8552

          k =-0.0833-0.5828 0.7494 (  6283 PWs)   bands (ev):

   -16.9848 -16.9729 -16.8897 -16.8385 -16.8252 -16.8159 -16.7934 -16.7625
   -16.6761 -16.6653  -1.7687   0.0979   3.7399   5.3667   9.7426  12.5875

          k = 0.0000-0.4996 0.6661 (  6280 PWs)   bands (ev):

   -16.9821 -16.9724 -16.8929 -16.8537 -16.8318 -16.8043 -16.7815 -16.7611
   -16.6769 -16.6688  -2.2155   0.6249   3.8239   5.6869   9.9710  12.2853

          k =-0.1665-0.8326 0.9991 (  6279 PWs)   bands (ev):

   -16.9723 -16.9723 -16.9089 -16.8584 -16.8355 -16.7939 -16.7856 -16.7433
   -16.6771 -16.6770  -1.9221   0.2777   4.7003   4.8960   9.0187   9.5366

          k =-0.0833-0.7494 0.9159 (  6277 PWs)   bands (ev):

   -16.9798 -16.9735 -16.8916 -16.8606 -16.8242 -16.7985 -16.7902 -16.7606
   -16.6751 -16.6694  -1.3861  -0.3092   4.1904   4.8517   9.2991  10.3601

          k = 0.0000-0.6661 0.8326 (  6266 PWs)   bands (ev):

   -16.9847 -16.9739 -16.8864 -16.8431 -16.8211 -16.8048 -16.8046 -16.7653
   -16.6748 -16.6649  -1.2999  -0.3765   3.7775   5.0356   9.4798  11.8133

          k =-0.9991 0.1665 0.0000 (  6298 PWs)   bands (ev):

   -16.9740 -16.9740 -16.8862 -16.8862 -16.8104 -16.8104 -16.7666 -16.7666
   -16.6744 -16.6744  -0.8790  -0.8790   4.6707   4.6707   9.1499   9.1499

          k =-0.3330-0.6661 0.9991 (  6272 PWs)   bands (ev):

   -16.9750 -16.9721 -16.9059 -16.8595 -16.8299 -16.8148 -16.7658 -16.7489
   -16.6781 -16.6767  -2.5793   1.1240   4.3265   5.5030  10.5426  10.7867

          k =-0.2498-0.5828 0.9159 (  6272 PWs)   bands (ev):

   -16.9813 -16.9742 -16.8921 -16.8493 -16.8252 -16.8172 -16.7800 -16.7610
   -16.6756 -16.6691  -2.0535   0.4358   3.9970   5.2099  10.6600  11.3623

          k =-0.1665-0.4996 0.8326 (  6274 PWs)   bands (ev):

   -16.9836 -16.9747 -16.8866 -16.8436 -16.8244 -16.8166 -16.7885 -16.7651
   -16.6748 -16.6664  -1.7667   0.0864   3.8959   5.0975  10.6593  11.3911

          k =-0.1665-0.6661 0.9991 (  6267 PWs)   bands (ev):

   -16.9792 -16.9769 -16.8902 -16.8430 -16.8373 -16.8048 -16.7882 -16.7613
   -16.6726 -16.6705  -1.7601   0.1373   4.1609   4.7516  10.3886  10.6976

          k =-0.0833-0.5828 0.9159 (  6272 PWs)   bands (ev):

   -16.9836 -16.9781 -16.8766 -16.8433 -16.8276 -16.8052 -16.7992 -16.7730
   -16.6710 -16.6659  -1.3270  -0.3175   3.9120   4.6117  10.6607  11.9040

          k = 0.0000-0.4996 0.8326 (  6273 PWs)   bands (ev):

   -16.9842 -16.9773 -16.8791 -16.8347 -16.8318 -16.8105 -16.7980 -16.7706
   -16.6719 -16.6655  -1.5351  -0.0961   3.8016   4.8112  10.8672  12.1218

          k =-0.9991 0.3330 0.0000 (  6262 PWs)   bands (ev):

   -16.9797 -16.9797 -16.8688 -16.8688 -16.8128 -16.8128 -16.7810 -16.7810
   -16.6693 -16.6693  -0.8376  -0.8376   4.2964   4.2964  10.4501  10.4501

          k =-0.9991 0.4996-0.0000 (  6268 PWs)   bands (ev):

   -16.9822 -16.9822 -16.8579 -16.8579 -16.8161 -16.8161 -16.7883 -16.7883
   -16.6671 -16.6671  -0.8162  -0.8162   4.1363   4.1363  11.9100  11.9100

     the Fermi energy is     7.7988 ev

!    total energy              =    -427.30354757 Ry
     estimated scf accuracy    <          4.8E-16 Ry
     smearing contrib. (-TS)   =      -0.00000293 Ry
     internal energy E=F+TS    =    -427.30354464 Ry

     The total energy is F=E-TS. E is the sum of the following terms:
     one-electron contribution =    -283.97870292 Ry
     hartree contribution      =     167.35216899 Ry
     xc contribution           =    -116.58147143 Ry
     ewald contribution        =    -194.09553927 Ry

     convergence has been achieved in  11 iterations

     Forces acting on atoms (cartesian axes, Ry/au):

     atom    1 type  1   force =     0.00000000    0.00000000    0.00000000
     atom    2 type  1   force =     0.00000000    0.00000000    0.00000000

     Total force =     0.000000     Total SCF correction =     0.000000


     Computing stress (Cartesian axis) and pressure

          total   stress  (Ry/bohr**3)                   (kbar)     P=        0.03
   0.00000020   0.00000000  -0.00000000            0.03        0.00       -0.00
  -0.00000000   0.00000020   0.00000000           -0.00        0.03        0.00
   0.00000000   0.00000000   0.00000020            0.00        0.00        0.03


     Writing all to output data dir ./Ge.save/ :
     XML data file, charge density, pseudopotentials, collected wavefunctions
 
     init_run     :      3.37s CPU      3.49s WALL (       2 calls)
     electrons    :    178.30s CPU    180.09s WALL (       5 calls)
     update_pot   :      0.04s CPU      0.06s WALL (       3 calls)
     forces       :      1.71s CPU      1.77s WALL (       5 calls)
     stress       :      6.26s CPU      6.37s WALL (       5 calls)

     Called by init_run:
     wfcinit      :      3.01s CPU      3.05s WALL (       2 calls)
     potinit      :      0.03s CPU      0.03s WALL (       2 calls)
     hinit0       :      0.16s CPU      0.17s WALL (       2 calls)

     Called by electrons:
     c_bands      :    152.63s CPU    153.84s WALL (      40 calls)
     sum_band     :     24.19s CPU     24.50s WALL (      40 calls)
     v_of_rho     :      0.52s CPU      0.58s WALL (      41 calls)
     newd         :      1.07s CPU      1.24s WALL (      41 calls)
     mix_rho      :      0.04s CPU      0.05s WALL (      40 calls)

     Called by c_bands:
     init_us_2    :      1.55s CPU      1.60s WALL (    6624 calls)
     cegterg      :    145.25s CPU    145.97s WALL (    2880 calls)

     Called by *egterg:
     cdiaghg      :      1.71s CPU      1.72s WALL (    9388 calls)
     h_psi        :    117.35s CPU    117.97s WALL (   10036 calls)
     s_psi        :      6.28s CPU      6.32s WALL (   10036 calls)
     g_psi        :      0.17s CPU      0.17s WALL (    7012 calls)

     Called by h_psi:
     h_psi:calbec :      7.84s CPU      7.88s WALL (   10036 calls)
     vloc_psi     :    102.75s CPU    103.32s WALL (   10036 calls)
                                        0.00s GPU  (   10036 calls)
     add_vuspsi   :      6.46s CPU      6.49s WALL (   10036 calls)

     General routines
     calbec       :     16.08s CPU     16.15s WALL (   19036 calls)
     fft          :      0.41s CPU      0.43s WALL (     583 calls)
     ffts         :      0.02s CPU      0.02s WALL (      40 calls)
     fftw         :    112.81s CPU    113.42s WALL (  289912 calls)
 
     Parallel routines
 
     PWSCF        :   3m 9.87s CPU   3m13.75s WALL

 
   This run was terminated on:  13:24:15   4Mar2026            

=------------------------------------------------------------------------------=
   JOB DONE.
=------------------------------------------------------------------------------=
