
     Program PWSCF v.7.5 starts on  4Mar2026 at 13:43: 7 

     This program is part of the open-source Quantum ESPRESSO suite
     for quantum simulation of materials; please cite
         "P. Giannozzi et al., J. Phys.:Condens. Matter 21 395502 (2009);
         "P. Giannozzi et al., J. Phys.:Condens. Matter 29 465901 (2017);
         "P. Giannozzi et al., J. Chem. Phys. 152 154105 (2020);
          URL http://www.quantum-espresso.org", 
     in publications or presentations arising from this work. More details at
     http://www.quantum-espresso.org/quote

     Parallel version (MPI), running on     4 processors

     MPI processes distributed on     1 nodes
     493990 MiB available memory on the printing compute node when the environment starts
 
     Waiting for input...
     Reading input from standard input

     Current dimensions of program PWSCF are:
     Max number of different atomic species (ntypx) = 10
     Max number of k-points (npk) =  40000
     Max angular momentum in pseudopotentials (lmaxx) =  4
     Message from routine setup:
     using ibrav=0 with symmetry is DISCOURAGED, use correct ibrav instead
 
     R & G space division:  proc/nbgrp/npool/nimage =       4
     Subspace diagonalization in iterative solution of the eigenvalue problem:
     a serial algorithm will be used

 
     Parallelization info
     --------------------
     sticks:   dense  smooth     PW     G-vecs:    dense   smooth      PW
     Min         441     441    127                12191    12191    1907
     Max         442     442    128                12192    12192    1909
     Sum        1765    1765    511                48767    48767    7631
 
     Using Slab Decomposition
 


     bravais-lattice index     =            0
     lattice parameter (alat)  =      10.7613  a.u.
     unit-cell volume          =     312.3555 (a.u.)^3
     number of atoms/cell      =            2
     number of atomic types    =            1
     number of electrons       =        28.00
     number of Kohn-Sham states=           16
     kinetic-energy cutoff     =     110.0000  Ry
     charge density cutoff     =     440.0000  Ry
     scf convergence threshold =      1.0E-12
     mixing beta               =       0.7000
     number of iterations used =            8  plain     mixing
     energy convergence thresh.=      1.0E-04
     force convergence thresh. =      1.0E-03
     press convergence thresh. =      5.0E-01
     Exchange-correlation=  SLA  PW   PBX  PBC
                           (   1   4   3   4   0   0   0)
     nstep                     =           50


     celldm(1)=  10.761300  celldm(2)=   0.000000  celldm(3)=   0.000000
     celldm(4)=   0.000000  celldm(5)=   0.000000  celldm(6)=   0.000000

     crystal axes: (cart. coord. in units of alat)
               a(1) = (   0.000000   0.500428   0.500428 )  
               a(2) = (   0.500428   0.000000   0.500428 )  
               a(3) = (   0.500428   0.500428   0.000000 )  

     reciprocal axes: (cart. coord. in units 2 pi/alat)
               b(1) = ( -0.999145  0.999145  0.999145 )  
               b(2) = (  0.999145 -0.999145  0.999145 )  
               b(3) = (  0.999145  0.999145 -0.999145 )  


     PseudoPot. # 1 for Ge read from file:
     ./ge_pbe_v1.4.uspp.F.UPF
     MD5 check sum: 9c9eaa91e581c3f09632fb3098b2c6b2
     Pseudo is Ultrasoft + core correction, Zval = 14.0
     Generated by new atomic code, or converted to UPF format
     Using radial grid of  873 points,  6 beta functions with: 
                l(1) =   0
                l(2) =   0
                l(3) =   1
                l(4) =   1
                l(5) =   2
                l(6) =   2
     Q(r) pseudized with  8 coefficients,  rinner =    1.400   1.400   1.400
                                                       1.400   1.400

     atomic species   valence    mass     pseudopotential
     Ge               14.00    72.63000     Ge( 1.00)

     48 Sym. Ops., with inversion, found (24 have fractional translation)



   Cartesian axes

     site n.     atom                  positions (alat units)
         1        Ge     tau(   1) = (   0.0000000   0.0000000   0.0000000  )
         2        Ge     tau(   2) = (   0.2502140   0.2502140   0.2502140  )

     number of k points=    72  Gaussian smearing, width (Ry)=  0.0020
                       cart. coord. in units 2pi/alat
        k(    1) = (   0.0000000   0.0000000   0.0000000), wk =   0.0011574
        k(    2) = (   0.0832620   0.0832620  -0.0832620), wk =   0.0092593
        k(    3) = (   0.1665241   0.1665241  -0.1665241), wk =   0.0092593
        k(    4) = (   0.2497861   0.2497861  -0.2497861), wk =   0.0092593
        k(    5) = (   0.3330482   0.3330482  -0.3330482), wk =   0.0092593
        k(    6) = (   0.4163102   0.4163102  -0.4163102), wk =   0.0092593
        k(    7) = (  -0.4995723  -0.4995723   0.4995723), wk =   0.0046296
        k(    8) = (   0.1665241   0.0000000   0.0000000), wk =   0.0069444
        k(    9) = (   0.2497861   0.0832620  -0.0832620), wk =   0.0277778
        k(   10) = (   0.3330482   0.1665241  -0.1665241), wk =   0.0277778
        k(   11) = (   0.4163102   0.2497861  -0.2497861), wk =   0.0277778
        k(   12) = (   0.4995723   0.3330482  -0.3330482), wk =   0.0277778
        k(   13) = (  -0.4163102  -0.5828343   0.5828343), wk =   0.0277778
        k(   14) = (  -0.3330482  -0.4995723   0.4995723), wk =   0.0277778
        k(   15) = (  -0.2497861  -0.4163102   0.4163102), wk =   0.0277778
        k(   16) = (  -0.1665241  -0.3330482   0.3330482), wk =   0.0277778
        k(   17) = (  -0.0832620  -0.2497861   0.2497861), wk =   0.0277778
        k(   18) = (  -0.0000000  -0.1665241   0.1665241), wk =   0.0138889
        k(   19) = (   0.3330482   0.0000000   0.0000000), wk =   0.0069444
        k(   20) = (   0.4163102   0.0832620  -0.0832620), wk =   0.0277778
        k(   21) = (   0.4995723   0.1665241  -0.1665241), wk =   0.0277778
        k(   22) = (   0.5828343   0.2497861  -0.2497861), wk =   0.0277778
        k(   23) = (  -0.3330482  -0.6660964   0.6660964), wk =   0.0277778
        k(   24) = (  -0.2497861  -0.5828343   0.5828343), wk =   0.0277778
        k(   25) = (  -0.1665241  -0.4995723   0.4995723), wk =   0.0277778
        k(   26) = (  -0.0832620  -0.4163102   0.4163102), wk =   0.0277778
        k(   27) = (  -0.0000000  -0.3330482   0.3330482), wk =   0.0138889
        k(   28) = (   0.4995723   0.0000000   0.0000000), wk =   0.0069444
        k(   29) = (   0.5828343   0.0832620  -0.0832620), wk =   0.0277778
        k(   30) = (   0.6660964   0.1665241  -0.1665241), wk =   0.0277778
        k(   31) = (  -0.2497861  -0.7493584   0.7493584), wk =   0.0277778
        k(   32) = (  -0.1665241  -0.6660964   0.6660964), wk =   0.0277778
        k(   33) = (  -0.0832620  -0.5828343   0.5828343), wk =   0.0277778
        k(   34) = (   0.0000000  -0.4995723   0.4995723), wk =   0.0138889
        k(   35) = (   0.6660964   0.0000000   0.0000000), wk =   0.0069444
        k(   36) = (   0.7493584   0.0832620  -0.0832620), wk =   0.0277778
        k(   37) = (  -0.1665241  -0.8326205   0.8326205), wk =   0.0277778
        k(   38) = (  -0.0832620  -0.7493584   0.7493584), wk =   0.0277778
        k(   39) = (  -0.0000000  -0.6660964   0.6660964), wk =   0.0138889
        k(   40) = (   0.8326205   0.0000000   0.0000000), wk =   0.0069444
        k(   41) = (  -0.0832620  -0.9158825   0.9158825), wk =   0.0277778
        k(   42) = (  -0.0000000  -0.8326205   0.8326205), wk =   0.0138889
        k(   43) = (  -0.9991446   0.0000000   0.0000000), wk =   0.0034722
        k(   44) = (   0.3330482   0.1665241  -0.0000000), wk =   0.0277778
        k(   45) = (   0.4163102   0.2497861  -0.0832620), wk =   0.0555556
        k(   46) = (   0.4995723   0.3330482  -0.1665241), wk =   0.0555556
        k(   47) = (  -0.4163102  -0.5828343   0.7493584), wk =   0.0555556
        k(   48) = (  -0.3330482  -0.4995723   0.6660964), wk =   0.0277778
        k(   49) = (   0.4995723   0.1665241   0.0000000), wk =   0.0277778
        k(   50) = (   0.5828343   0.2497861  -0.0832620), wk =   0.0555556
        k(   51) = (  -0.3330482  -0.6660964   0.8326205), wk =   0.0555556
        k(   52) = (  -0.2497861  -0.5828343   0.7493584), wk =   0.0555556
        k(   53) = (  -0.1665241  -0.4995723   0.6660964), wk =   0.0555556
        k(   54) = (  -0.0832620  -0.4163102   0.5828343), wk =   0.0555556
        k(   55) = (  -0.0000000  -0.3330482   0.4995723), wk =   0.0277778
        k(   56) = (   0.6660964   0.1665241   0.0000000), wk =   0.0277778
        k(   57) = (  -0.2497861  -0.7493584   0.9158825), wk =   0.0555556
        k(   58) = (  -0.1665241  -0.6660964   0.8326205), wk =   0.0555556
        k(   59) = (  -0.0832620  -0.5828343   0.7493584), wk =   0.0555556
        k(   60) = (  -0.0000000  -0.4995723   0.6660964), wk =   0.0277778
        k(   61) = (  -0.1665241  -0.8326205   0.9991446), wk =   0.0277778
        k(   62) = (  -0.0832620  -0.7493584   0.9158825), wk =   0.0555556
        k(   63) = (  -0.0000000  -0.6660964   0.8326205), wk =   0.0277778
        k(   64) = (  -0.9991446   0.1665241   0.0000000), wk =   0.0138889
        k(   65) = (  -0.3330482  -0.6660964   0.9991446), wk =   0.0277778
        k(   66) = (  -0.2497861  -0.5828343   0.9158825), wk =   0.0555556
        k(   67) = (  -0.1665241  -0.4995723   0.8326205), wk =   0.0277778
        k(   68) = (  -0.1665241  -0.6660964   0.9991446), wk =   0.0277778
        k(   69) = (  -0.0832620  -0.5828343   0.9158825), wk =   0.0555556
        k(   70) = (   0.0000000  -0.4995723   0.8326205), wk =   0.0277778
        k(   71) = (  -0.9991446   0.3330482   0.0000000), wk =   0.0138889
        k(   72) = (  -0.9991446   0.4995723   0.0000000), wk =   0.0069444

     Dense  grid:    48767 G-vectors     FFT dimensions: (  60,  60,  60)

     Estimated max dynamical RAM per process >      77.48 MB

     Estimated total dynamical RAM >     309.91 MB

     Check: negative core charge=   -0.000002

     Initial potential from superposition of free atoms

     starting charge      27.9983, renormalised to      28.0000
     Starting wfcs are   18 randomized atomic wfcs

     total cpu time spent up to now is        2.2 secs

     Self-consistent Calculation

     iteration #  1     ecut=   110.00 Ry     beta= 0.70
     Davidson diagonalization with overlap
     ethr =  1.00E-02,  avg # of iterations =  2.4

     Threshold (ethr) on eigenvalues was too large:
     Diagonalizing with lowered threshold

     Davidson diagonalization with overlap
     ethr =  1.09E-04,  avg # of iterations =  2.8

     total cpu time spent up to now is       10.9 secs

     total energy              =    -427.30193363 Ry
     estimated scf accuracy    <       0.03278423 Ry

     iteration #  2     ecut=   110.00 Ry     beta= 0.70
     Davidson diagonalization with overlap
     ethr =  1.17E-04,  avg # of iterations =  1.0

     total cpu time spent up to now is       14.6 secs

     total energy              =    -427.30279339 Ry
     estimated scf accuracy    <       0.00180752 Ry

     iteration #  3     ecut=   110.00 Ry     beta= 0.70
     Davidson diagonalization with overlap
     ethr =  6.46E-06,  avg # of iterations =  3.1

     total cpu time spent up to now is       19.0 secs

     total energy              =    -427.30288981 Ry
     estimated scf accuracy    <       0.00002490 Ry

     iteration #  4     ecut=   110.00 Ry     beta= 0.70
     Davidson diagonalization with overlap
     ethr =  8.89E-08,  avg # of iterations =  2.7

     total cpu time spent up to now is       24.3 secs

     total energy              =    -427.30289998 Ry
     estimated scf accuracy    <       0.00000270 Ry

     iteration #  5     ecut=   110.00 Ry     beta= 0.70
     Davidson diagonalization with overlap
     ethr =  9.65E-09,  avg # of iterations =  2.0

     total cpu time spent up to now is       29.4 secs

     total energy              =    -427.30290056 Ry
     estimated scf accuracy    <       0.00000008 Ry

     iteration #  6     ecut=   110.00 Ry     beta= 0.70
     Davidson diagonalization with overlap
     ethr =  2.69E-10,  avg # of iterations =  3.2

     total cpu time spent up to now is       35.1 secs

     total energy              =    -427.30290061 Ry
     estimated scf accuracy    <          5.6E-09 Ry

     iteration #  7     ecut=   110.00 Ry     beta= 0.70
     Davidson diagonalization with overlap
     ethr =  2.01E-11,  avg # of iterations =  2.4

     total cpu time spent up to now is       40.4 secs

     total energy              =    -427.30290061 Ry
     estimated scf accuracy    <          1.1E-10 Ry

     iteration #  8     ecut=   110.00 Ry     beta= 0.70
     Davidson diagonalization with overlap
     ethr =  3.82E-13,  avg # of iterations =  3.6

     total cpu time spent up to now is       46.1 secs

     total energy              =    -427.30290061 Ry
     estimated scf accuracy    <          6.9E-12 Ry

     iteration #  9     ecut=   110.00 Ry     beta= 0.70
     Davidson diagonalization with overlap
     ethr =  1.00E-13,  avg # of iterations =  1.8

     total cpu time spent up to now is       50.5 secs

     End of self-consistent calculation

          k = 0.0000 0.0000 0.0000 (  6081 PWs)   bands (ev):

   -16.5949 -16.5949 -16.5949 -16.5610 -16.5610 -16.3614 -16.3614 -16.3614
   -16.3503 -16.3503  -4.4271   8.0097   8.1785   8.1785   8.1785  10.7214

          k = 0.0833 0.0833-0.0833 (  6078 PWs)   bands (ev):

   -16.5989 -16.5989 -16.5938 -16.5555 -16.5555 -16.3682 -16.3682 -16.3626
   -16.3442 -16.3442  -4.3440   6.5882   8.0169   8.0169   9.0337  10.9379

          k = 0.1665 0.1665-0.1665 (  6099 PWs)   bands (ev):

   -16.6061 -16.6061 -16.5908 -16.5446 -16.5446 -16.3782 -16.3782 -16.3661
   -16.3362 -16.3362  -4.0978   5.0004   7.6716   7.6716   9.0514  11.3961

          k = 0.2498 0.2498-0.2498 (  6093 PWs)   bands (ev):

   -16.6121 -16.6121 -16.5867 -16.5341 -16.5341 -16.3865 -16.3865 -16.3709
   -16.3301 -16.3301  -3.7008   3.4896   7.3195   7.3195   8.7772  11.7811

          k = 0.3330 0.3330-0.3330 (  6108 PWs)   bands (ev):

   -16.6158 -16.6158 -16.5825 -16.5266 -16.5266 -16.3920 -16.3920 -16.3759
   -16.3261 -16.3261  -3.1869   2.1518   7.0411   7.0411   8.5196  11.9315

          k = 0.4163 0.4163-0.4163 (  6101 PWs)   bands (ev):

   -16.6176 -16.6176 -16.5793 -16.5226 -16.5226 -16.3946 -16.3946 -16.3795
   -16.3240 -16.3240  -2.6568   1.1178   6.8667   6.8667   8.3525  11.9285

          k =-0.4996-0.4996 0.4996 (  6116 PWs)   bands (ev):

   -16.6181 -16.6181 -16.5781 -16.5214 -16.5214 -16.3952 -16.3952 -16.3809
   -16.3234 -16.3234  -2.3910   0.6826   6.8077   6.8077   8.2954  11.9104

          k = 0.1665 0.0000 0.0000 (  6078 PWs)   bands (ev):

   -16.5992 -16.5974 -16.5974 -16.5572 -16.5498 -16.3801 -16.3576 -16.3576
   -16.3537 -16.3397  -4.3161   6.5161   7.7256   7.7256   9.6227  10.3932

          k = 0.2498 0.0833-0.0833 (  6082 PWs)   bands (ev):

   -16.6068 -16.6023 -16.5948 -16.5498 -16.5383 -16.3928 -16.3661 -16.3574
   -16.3457 -16.3336  -4.1236   5.3285   7.3368   7.4000   9.9105  10.4799

          k = 0.3330 0.1665-0.1665 (  6085 PWs)   bands (ev):

   -16.6146 -16.6084 -16.5890 -16.5396 -16.5266 -16.4030 -16.3761 -16.3626
   -16.3373 -16.3266  -3.7748   3.9004   6.9908   6.9950   9.6728  11.0210

          k = 0.4163 0.2498-0.2498 (  6091 PWs)   bands (ev):

   -16.6204 -16.6133 -16.5820 -16.5304 -16.5183 -16.4086 -16.3848 -16.3705
   -16.3307 -16.3210  -3.2938   2.5458   6.5976   6.7476   9.3890  11.4602

          k = 0.4996 0.3330-0.3330 (  6106 PWs)   bands (ev):

   -16.6236 -16.6167 -16.5754 -16.5232 -16.5152 -16.4085 -16.3919 -16.3788
   -16.3257 -16.3177  -2.7490   1.4128   6.2831   6.6300   9.1717  11.6440

          k =-0.4163-0.5828 0.5828 (  6103 PWs)   bands (ev):

   -16.6245 -16.6191 -16.5711 -16.5180 -16.5168 -16.4031 -16.3978 -16.3853
   -16.3222 -16.3170  -2.3488   0.7408   6.0815   6.6433   9.0552  11.7411

          k =-0.3330-0.4996 0.4996 (  6097 PWs)   bands (ev):

   -16.6231 -16.6204 -16.5708 -16.5210 -16.5152 -16.4023 -16.3954 -16.3877
   -16.3203 -16.3191  -2.4442   0.8917   6.0083   6.7828   9.0502  11.8726

          k =-0.2498-0.4163 0.4163 (  6091 PWs)   bands (ev):

   -16.6202 -16.6197 -16.5747 -16.5266 -16.5162 -16.4035 -16.3922 -16.3804
   -16.3238 -16.3202  -2.9311   1.7587   6.0742   7.0347   9.1545  11.9745

          k =-0.1665-0.3330 0.3330 (  6082 PWs)   bands (ev):

   -16.6179 -16.6143 -16.5814 -16.5336 -16.5222 -16.4000 -16.3889 -16.3692
   -16.3312 -16.3225  -3.4675   2.9806   6.2893   7.3725   9.3487  11.7401

          k =-0.0833-0.2498 0.2498 (  6084 PWs)   bands (ev):

   -16.6129 -16.6072 -16.5885 -16.5423 -16.5329 -16.3917 -16.3827 -16.3588
   -16.3407 -16.3274  -3.9084   4.3591   6.6708   7.7410   9.5601  11.3437

          k =-0.0000-0.1665 0.1665 (  6093 PWs)   bands (ev):

   -16.6058 -16.6001 -16.5936 -16.5513 -16.5454 -16.3805 -16.3742 -16.3537
   -16.3490 -16.3348  -4.2062   5.6918   7.2724   8.0179   9.5071  10.9706

          k = 0.3330 0.0000 0.0000 (  6082 PWs)   bands (ev):

   -16.6039 -16.6039 -16.6032 -16.5462 -16.5257 -16.4097 -16.3638 -16.3476
   -16.3476 -16.3341  -3.9846   4.9651   6.9270   6.9270   9.7681  10.7928

          k = 0.4163 0.0833-0.0833 (  6087 PWs)   bands (ev):

   -16.6139 -16.6088 -16.5958 -16.5372 -16.5121 -16.4242 -16.3734 -16.3497
   -16.3394 -16.3284  -3.6863   3.9671   6.4755   6.5712   9.7892  10.9084

          k = 0.4996 0.1665-0.1665 (  6081 PWs)   bands (ev):

   -16.6230 -16.6138 -16.5848 -16.5269 -16.5017 -16.4337 -16.3843 -16.3609
   -16.3312 -16.3189  -3.2451   2.7854   5.9433   6.3283   9.9330  11.2112

          k = 0.5828 0.2498-0.2498 (  6107 PWs)   bands (ev):

   -16.6299 -16.6181 -16.5727 -16.5172 -16.4976 -16.4355 -16.3950 -16.3742
   -16.3244 -16.3114  -2.7072   1.6731   5.4716   6.2226   9.8404  11.7281

          k =-0.3330-0.6661 0.6661 (  6084 PWs)   bands (ev):

   -16.6337 -16.6214 -16.5624 -16.5089 -16.5009 -16.4290 -16.4049 -16.3860
   -16.3193 -16.3073  -2.2172   0.8590   5.1273   6.2609   9.7574  11.9220

          k =-0.2498-0.5828 0.5828 (  6086 PWs)   bands (ev):

   -16.6339 -16.6237 -16.5570 -16.5096 -16.5028 -16.4163 -16.4132 -16.3936
   -16.3161 -16.3075  -2.1286   0.7289   4.9391   6.4376   9.7686  12.0312

          k =-0.1665-0.4996 0.4996 (  6099 PWs)   bands (ev):

   -16.6305 -16.6245 -16.5587 -16.5199 -16.5016 -16.4170 -16.4006 -16.3952
   -16.3150 -16.3122  -2.5403   1.3801   4.9332   6.7350   9.8720  12.1991

          k =-0.0833-0.4163 0.4163 (  6082 PWs)   bands (ev):

   -16.6238 -16.6231 -16.5676 -16.5286 -16.5074 -16.4139 -16.3958 -16.3804
   -16.3212 -16.3165  -3.0860   2.4029   5.1554   7.1151  10.0157  12.2082

          k =-0.0000-0.3330 0.3330 (  6107 PWs)   bands (ev):

   -16.6192 -16.6149 -16.5795 -16.5359 -16.5191 -16.4045 -16.3906 -16.3644
   -16.3332 -16.3207  -3.5636   3.4750   5.7035   7.5005  10.0251  11.7110

          k = 0.4996 0.0000 0.0000 (  6102 PWs)   bands (ev):

   -16.6122 -16.6122 -16.6006 -16.5289 -16.4958 -16.4438 -16.3799 -16.3379
   -16.3346 -16.3346  -3.4378   3.4566   6.1966   6.1966   9.2153  10.8676

          k = 0.5828 0.0833-0.0833 (  6094 PWs)   bands (ev):

   -16.6209 -16.6165 -16.5903 -16.5180 -16.4817 -16.4587 -16.3907 -16.3512
   -16.3276 -16.3220  -3.0401   2.6003   5.7138   5.9334   9.3198  10.7097

          k = 0.6661 0.1665-0.1665 (  6100 PWs)   bands (ev):

   -16.6307 -16.6205 -16.5745 -16.5067 -16.4750 -16.4643 -16.4028 -16.3686
   -16.3210 -16.3104  -2.5238   1.6672   5.0831   5.8107   9.5442  11.1996

          k =-0.2498-0.7494 0.7494 (  6098 PWs)   bands (ev):

   -16.6379 -16.6239 -16.5592 -16.4961 -16.4775 -16.4597 -16.4150 -16.3850
   -16.3159 -16.3024  -1.9843   0.8574   4.5473   5.8383   9.5959  12.3269

          k =-0.1665-0.6661 0.6661 (  6078 PWs)   bands (ev):

   -16.6411 -16.6263 -16.5494 -16.4877 -16.4863 -16.4484 -16.4258 -16.3953
   -16.3126 -16.2991  -1.7279   0.5211   4.2106   6.0128   9.6977  13.0688

          k =-0.0833-0.5828 0.5828 (  6080 PWs)   bands (ev):

   -16.6396 -16.6273 -16.5471 -16.5029 -16.4856 -16.4306 -16.4285 -16.3984
   -16.3114 -16.3014  -2.0431   0.9405   4.1363   6.3170   9.8933  13.1746

          k = 0.0000-0.4996 0.4996 (  6081 PWs)   bands (ev):

   -16.6334 -16.6263 -16.5534 -16.5192 -16.4935 -16.4256 -16.4066 -16.3953
   -16.3127 -16.3093  -2.5842   1.6949   4.4166   6.7119  10.0979  12.9182

          k = 0.6661 0.0000 0.0000 (  6106 PWs)   bands (ev):

   -16.6199 -16.6199 -16.5900 -16.5064 -16.4796 -16.4631 -16.4011 -16.3508
   -16.3222 -16.3222  -2.6847   2.0054   5.6414   5.6414   8.8677  10.1418

          k = 0.7494 0.0833-0.0833 (  6098 PWs)   bands (ev):

   -16.6270 -16.6231 -16.5765 -16.4940 -16.4936 -16.4494 -16.4135 -16.3657
   -16.3170 -16.3132  -2.1981   1.2603   5.1899   5.4878   9.0543  10.0334

          k =-0.1665-0.8326 0.8326 (  6086 PWs)   bands (ev):

   -16.6361 -16.6257 -16.5581 -16.4973 -16.4818 -16.4442 -16.4269 -16.3850
   -16.3129 -16.3033  -1.6398   0.5446   4.5403   5.4867   9.2454  10.8296

          k =-0.0833-0.7494 0.7494 (  6074 PWs)   bands (ev):

   -16.6424 -16.6276 -16.5461 -16.4852 -16.4716 -16.4540 -16.4390 -16.3973
   -16.3104 -16.2969  -1.2588   0.1236   4.0292   5.6375   9.3814  12.2425

          k =-0.0000-0.6661 0.6661 (  6051 PWs)   bands (ev):

   -16.6439 -16.6282 -16.5435 -16.4777 -16.4723 -16.4589 -16.4411 -16.3998
   -16.3099 -16.2960  -1.5145   0.4088   3.8468   5.9261   9.6186  13.8431

          k = 0.8326 0.0000 0.0000 (  6086 PWs)   bands (ev):

   -16.6252 -16.6252 -16.5714 -16.5144 -16.4806 -16.4300 -16.4260 -16.3716
   -16.3134 -16.3134  -1.7399   0.6348   5.2981   5.2981   8.7747   9.4285

          k =-0.0833-0.9159 0.9159 (  6087 PWs)   bands (ev):

   -16.6304 -16.6268 -16.5552 -16.5258 -16.4672 -16.4397 -16.4181 -16.3884
   -16.3109 -16.3077  -1.1818  -0.0121   4.9248   5.2600   8.9986   9.5473

          k =-0.0000-0.8326 0.8326 (  6078 PWs)   bands (ev):

   -16.6380 -16.6276 -16.5445 -16.5156 -16.4581 -16.4502 -16.4260 -16.3993
   -16.3099 -16.3006  -0.8109  -0.3658   4.3570   5.3767   9.1400  10.6793

          k =-0.9991 0.0000 0.0000 (  6074 PWs)   bands (ev):

   -16.6271 -16.6271 -16.5457 -16.5457 -16.4531 -16.4531 -16.3988 -16.3988
   -16.3102 -16.3102  -0.6243  -0.6243   5.1822   5.1822   8.9597   8.9597

          k = 0.3330 0.1665-0.0000 (  6081 PWs)   bands (ev):

   -16.6128 -16.6071 -16.5917 -16.5427 -16.5257 -16.4065 -16.3736 -16.3534
   -16.3435 -16.3277  -3.8786   4.4367   6.4799   7.3217  10.3465  10.4202

          k = 0.4163 0.2498-0.0833 (  6078 PWs)   bands (ev):

   -16.6197 -16.6143 -16.5826 -16.5337 -16.5137 -16.4170 -16.3825 -16.3641
   -16.3325 -16.3212  -3.4833   3.2658   5.8762   7.0380  10.2028  11.0127

          k = 0.4996 0.3330-0.1665 (  6094 PWs)   bands (ev):

   -16.6257 -16.6193 -16.5721 -16.5250 -16.5060 -16.4220 -16.3900 -16.3779
   -16.3238 -16.3156  -2.9700   2.0790   5.5194   6.7150   9.9899  11.4903

          k =-0.4163-0.5828 0.7494 (  6090 PWs)   bands (ev):

   -16.6299 -16.6219 -16.5638 -16.5173 -16.5045 -16.4200 -16.3980 -16.3888
   -16.3192 -16.3115  -2.4365   1.1071   5.3328   6.4811   9.8382  11.6066

          k =-0.3330-0.4996 0.6661 (  6088 PWs)   bands (ev):

   -16.6314 -16.6226 -16.5607 -16.5123 -16.5067 -16.4151 -16.4058 -16.3917
   -16.3178 -16.3099  -2.1652   0.6851   5.2753   6.3966   9.7849  11.6066

          k = 0.4996 0.1665 0.0000 (  6089 PWs)   bands (ev):

   -16.6188 -16.6158 -16.5885 -16.5279 -16.4982 -16.4391 -16.3825 -16.3555
   -16.3305 -16.3231  -3.3393   3.1453   5.7708   6.4129   9.8747  10.9531

          k = 0.5828 0.2498-0.0833 (  6092 PWs)   bands (ev):

   -16.6271 -16.6212 -16.5747 -16.5177 -16.4878 -16.4483 -16.3933 -16.3703
   -16.3217 -16.3144  -2.8597   2.1706   5.1985   6.1418  10.1627  11.2776

          k =-0.3330-0.6661 0.8326 (  6083 PWs)   bands (ev):

   -16.6345 -16.6243 -16.5607 -16.5078 -16.4847 -16.4489 -16.4050 -16.3852
   -16.3164 -16.3063  -2.3111   1.2388   4.7919   5.9499  10.1845  11.9114

          k =-0.2498-0.5828 0.7494 (  6083 PWs)   bands (ev):

   -16.6383 -16.6263 -16.5511 -16.5005 -16.4882 -16.4417 -16.4162 -16.3948
   -16.3134 -16.3021  -1.9015   0.6443   4.5358   5.9326  10.2153  11.9611

          k =-0.1665-0.4996 0.6661 (  6076 PWs)   bands (ev):

   -16.6378 -16.6271 -16.5492 -16.5051 -16.4887 -16.4360 -16.4160 -16.3977
   -16.3123 -16.3031  -2.0135   0.8017   4.4490   6.0938  10.3320  11.9068

          k =-0.0833-0.4163 0.5828 (  6090 PWs)   bands (ev):

   -16.6328 -16.6265 -16.5559 -16.5164 -16.4908 -16.4354 -16.3991 -16.3954
   -16.3134 -16.3092  -2.5150   1.5570   4.5837   6.3961  10.5054  11.8099

          k =-0.0000-0.3330 0.4996 (  6091 PWs)   bands (ev):

   -16.6242 -16.6240 -16.5691 -16.5259 -16.5003 -16.4287 -16.3903 -16.3790
   -16.3205 -16.3160  -3.0492   2.4637   5.0315   6.7633  10.6077  11.3074

          k = 0.6661 0.1665 0.0000 (  6102 PWs)   bands (ev):

   -16.6246 -16.6237 -16.5790 -16.5066 -16.4734 -16.4675 -16.4020 -16.3633
   -16.3183 -16.3165  -2.5997   1.8538   5.2550   5.6705   9.5108  10.5254

          k =-0.2498-0.7494 0.9159 (  6090 PWs)   bands (ev):

   -16.6337 -16.6270 -16.5613 -16.4951 -16.4809 -16.4586 -16.4149 -16.3817
   -16.3129 -16.3065  -2.0585   1.0701   4.7049   5.4699   9.8457  11.0514

          k =-0.1665-0.6661 0.8326 (  6082 PWs)   bands (ev):

   -16.6406 -16.6290 -16.5462 -16.4855 -16.4771 -16.4592 -16.4280 -16.3967
   -16.3099 -16.2991  -1.5560   0.4407   4.2269   5.4726   9.9651  12.3253

          k =-0.0833-0.5828 0.7494 (  6073 PWs)   bands (ev):

   -16.6429 -16.6299 -16.5404 -16.4846 -16.4700 -16.4603 -16.4354 -16.4020
   -16.3087 -16.2970  -1.5122   0.3951   3.9755   5.6605  10.1501  13.0715

          k =-0.0000-0.4996 0.6661 (  6074 PWs)   bands (ev):

   -16.6399 -16.6294 -16.5438 -16.5012 -16.4771 -16.4477 -16.4227 -16.4005
   -16.3095 -16.3008  -1.9758   0.9388   4.0621   5.9926  10.4046  12.7461

          k =-0.1665-0.8326 0.9991 (  6086 PWs)   bands (ev):

   -16.6292 -16.6291 -16.5615 -16.5068 -16.4811 -16.4360 -16.4267 -16.3812
   -16.3098 -16.3098  -1.6782   0.5903   4.9716   5.1729   9.3829   9.9168

          k =-0.0833-0.7494 0.9159 (  6080 PWs)   bands (ev):

   -16.6373 -16.6305 -16.5427 -16.5090 -16.4688 -16.4408 -16.4320 -16.3999
   -16.3077 -16.3014  -1.1230  -0.0147   4.4398   5.1274   9.6735  10.7653

          k =-0.0000-0.6661 0.8326 (  6082 PWs)   bands (ev):

   -16.6427 -16.6309 -16.5370 -16.4900 -16.4655 -16.4478 -16.4477 -16.4050
   -16.3072 -16.2964  -1.0291  -0.0876   4.0102   5.3178   9.8653  12.2633

          k =-0.9991 0.1665 0.0000 (  6080 PWs)   bands (ev):

   -16.6309 -16.6309 -16.5369 -16.5369 -16.4537 -16.4537 -16.4064 -16.4064
   -16.3069 -16.3069  -0.6023  -0.6023   4.9404   4.9404   9.5167   9.5167

          k =-0.3330-0.6661 0.9991 (  6107 PWs)   bands (ev):

   -16.6321 -16.6292 -16.5579 -16.5074 -16.4751 -16.4593 -16.4051 -16.3875
   -16.3108 -16.3094  -2.3540   1.4561   4.5835   5.8009  10.9521  11.2862

          k =-0.2498-0.5828 0.9159 (  6075 PWs)   bands (ev):

   -16.6390 -16.6313 -16.5429 -16.4963 -16.4701 -16.4617 -16.4208 -16.4005
   -16.3081 -16.3011  -1.8089   0.7453   4.2440   5.4955  11.1246  11.7963

          k =-0.1665-0.4996 0.8326 (  6070 PWs)   bands (ev):

   -16.6416 -16.6319 -16.5371 -16.4902 -16.4691 -16.4611 -16.4300 -16.4048
   -16.3072 -16.2981  -1.5099   0.3817   4.1409   5.3785  11.1347  11.7884

          k =-0.1665-0.6661 0.9991 (  6074 PWs)   bands (ev):

   -16.6367 -16.6343 -16.5410 -16.4899 -16.4832 -16.4479 -16.4296 -16.4008
   -16.3049 -16.3026  -1.5081   0.4459   4.4107   5.0197  10.7942  11.1311

          k =-0.0833-0.5828 0.9159 (  6079 PWs)   bands (ev):

   -16.6415 -16.6356 -16.5262 -16.4902 -16.4727 -16.4483 -16.4417 -16.4134
   -16.3032 -16.2976  -1.0584  -0.0234   4.1506   4.8747  11.0881  12.3795

          k = 0.0000-0.4996 0.8326 (  6076 PWs)   bands (ev):

   -16.6422 -16.6347 -16.5289 -16.4805 -16.4776 -16.4540 -16.4405 -16.4108
   -16.3041 -16.2972  -1.2727   0.2035   4.0363   5.0818  11.3189  12.5860

          k =-0.9991 0.3330 0.0000 (  6070 PWs)   bands (ev):

   -16.6373 -16.6373 -16.5179 -16.5179 -16.4565 -16.4565 -16.4220 -16.4220
   -16.3013 -16.3013  -0.5567  -0.5567   4.5487   4.5487  10.8605  10.8605

          k =-0.9991 0.4996 0.0000 (  6032 PWs)   bands (ev):

   -16.6400 -16.6400 -16.5059 -16.5059 -16.4602 -16.4602 -16.4300 -16.4300
   -16.2988 -16.2988  -0.5330  -0.5330   4.3813   4.3813  12.4140  12.4141

     the Fermi energy is     8.1868 ev

!    total energy              =    -427.30290061 Ry
     estimated scf accuracy    <          1.0E-13 Ry
     smearing contrib. (-TS)   =      -0.00000179 Ry
     internal energy E=F+TS    =    -427.30289883 Ry

     The total energy is F=E-TS. E is the sum of the following terms:
     one-electron contribution =    -280.72582382 Ry
     hartree contribution      =     166.09245612 Ry
     xc contribution           =    -116.61343083 Ry
     ewald contribution        =    -196.05610030 Ry

     convergence has been achieved in   9 iterations

     Forces acting on atoms (cartesian axes, Ry/au):

     atom    1 type  1   force =    -0.00000000    0.00000000    0.00000000
     atom    2 type  1   force =     0.00000000   -0.00000000   -0.00000000

     Total force =     0.000000     Total SCF correction =     0.000000


     Computing stress (Cartesian axis) and pressure

          total   stress  (Ry/bohr**3)                   (kbar)     P=       19.38
   0.00013172   0.00000000  -0.00000000           19.38        0.00       -0.00
   0.00000000   0.00013172   0.00000000            0.00       19.38        0.00
   0.00000000   0.00000000   0.00013172            0.00        0.00       19.38

     Volume is kept fixed: isostatic pressure set to zero

     BFGS Geometry Optimization
     Energy error            =      1.4E-35 Ry
     Gradient error          =      7.9E-31 Ry/Bohr
     Cell gradient error     =      4.0E-15 kbar

     bfgs converged in   1 scf cycles and   0 bfgs steps
     (criteria: energy <  1.0E-04 Ry, force <  1.0E-03 Ry/Bohr, cell <  5.0E-01 kbar)

     End of BFGS Geometry Optimization

     Final enthalpy           =    -427.3029006143 Ry
Begin final coordinates
     new unit-cell volume =    312.35554 a.u.^3 (    46.28632 Ang^3 )
     density =      5.21126 g/cm^3

CELL_PARAMETERS (alat= 10.76130000)
   0.000000000   0.500428075   0.500428075
   0.500428075   0.000000000   0.500428075
   0.500428075   0.500428075   0.000000000

ATOMIC_POSITIONS (alat)
Ge               0.0000000000        0.0000000000        0.0000000000
Ge               0.2502140375        0.2502140375        0.2502140375
End final coordinates



     Writing config-only to output data dir ./Ge.save/ :
     XML data file

     Final scf calculation at the relaxed structure.
     The G-vectors are recalculated for the final unit cell
     Results may differ from those at the preceding step.
 
     Parallelization info
     --------------------
     sticks:   dense  smooth     PW     G-vecs:    dense   smooth      PW
     Min         441     441    127                12191    12191    1907
     Max         442     442    128                12192    12192    1909
     Sum        1765    1765    511                48767    48767    7631
 
     Using Slab Decomposition
 


     bravais-lattice index     =            0
     lattice parameter (alat)  =      10.7613  a.u.
     unit-cell volume          =     312.3555 (a.u.)^3
     number of atoms/cell      =            2
     number of atomic types    =            1
     number of electrons       =        28.00
     number of Kohn-Sham states=           16
     kinetic-energy cutoff     =     110.0000  Ry
     charge density cutoff     =     440.0000  Ry
     scf convergence threshold =      1.0E-12
     mixing beta               =       0.7000
     number of iterations used =            8  plain     mixing
     press convergence thresh. =      5.0E-01
     Exchange-correlation=  SLA  PW   PBX  PBC
                           (   1   4   3   4   0   0   0)

     celldm(1)=  10.761300  celldm(2)=   0.000000  celldm(3)=   0.000000
     celldm(4)=   0.000000  celldm(5)=   0.000000  celldm(6)=   0.000000

     crystal axes: (cart. coord. in units of alat)
               a(1) = (   0.000000   0.500428   0.500428 )  
               a(2) = (   0.500428   0.000000   0.500428 )  
               a(3) = (   0.500428   0.500428   0.000000 )  

     reciprocal axes: (cart. coord. in units 2 pi/alat)
               b(1) = ( -0.999145  0.999145  0.999145 )  
               b(2) = (  0.999145 -0.999145  0.999145 )  
               b(3) = (  0.999145  0.999145 -0.999145 )  


     PseudoPot. # 1 for Ge read from file:
     ./ge_pbe_v1.4.uspp.F.UPF
     MD5 check sum: 9c9eaa91e581c3f09632fb3098b2c6b2
     Pseudo is Ultrasoft + core correction, Zval = 14.0
     Generated by new atomic code, or converted to UPF format
     Using radial grid of  873 points,  6 beta functions with: 
                l(1) =   0
                l(2) =   0
                l(3) =   1
                l(4) =   1
                l(5) =   2
                l(6) =   2
     Q(r) pseudized with  8 coefficients,  rinner =    1.400   1.400   1.400
                                                       1.400   1.400

     atomic species   valence    mass     pseudopotential
     Ge               14.00    72.63000     Ge( 1.00)

     48 Sym. Ops., with inversion, found (24 have fractional translation)



   Cartesian axes

     site n.     atom                  positions (alat units)
         1        Ge     tau(   1) = (   0.0000000   0.0000000   0.0000000  )
         2        Ge     tau(   2) = (   0.2502140   0.2502140   0.2502140  )

     number of k points=    72  Gaussian smearing, width (Ry)=  0.0020
                       cart. coord. in units 2pi/alat
        k(    1) = (   0.0000000   0.0000000   0.0000000), wk =   0.0011574
        k(    2) = (   0.0832620   0.0832620  -0.0832620), wk =   0.0092593
        k(    3) = (   0.1665241   0.1665241  -0.1665241), wk =   0.0092593
        k(    4) = (   0.2497861   0.2497861  -0.2497861), wk =   0.0092593
        k(    5) = (   0.3330482   0.3330482  -0.3330482), wk =   0.0092593
        k(    6) = (   0.4163102   0.4163102  -0.4163102), wk =   0.0092593
        k(    7) = (  -0.4995723  -0.4995723   0.4995723), wk =   0.0046296
        k(    8) = (   0.1665241   0.0000000   0.0000000), wk =   0.0069444
        k(    9) = (   0.2497861   0.0832620  -0.0832620), wk =   0.0277778
        k(   10) = (   0.3330482   0.1665241  -0.1665241), wk =   0.0277778
        k(   11) = (   0.4163102   0.2497861  -0.2497861), wk =   0.0277778
        k(   12) = (   0.4995723   0.3330482  -0.3330482), wk =   0.0277778
        k(   13) = (  -0.4163102  -0.5828343   0.5828343), wk =   0.0277778
        k(   14) = (  -0.3330482  -0.4995723   0.4995723), wk =   0.0277778
        k(   15) = (  -0.2497861  -0.4163102   0.4163102), wk =   0.0277778
        k(   16) = (  -0.1665241  -0.3330482   0.3330482), wk =   0.0277778
        k(   17) = (  -0.0832620  -0.2497861   0.2497861), wk =   0.0277778
        k(   18) = (  -0.0000000  -0.1665241   0.1665241), wk =   0.0138889
        k(   19) = (   0.3330482   0.0000000   0.0000000), wk =   0.0069444
        k(   20) = (   0.4163102   0.0832620  -0.0832620), wk =   0.0277778
        k(   21) = (   0.4995723   0.1665241  -0.1665241), wk =   0.0277778
        k(   22) = (   0.5828343   0.2497861  -0.2497861), wk =   0.0277778
        k(   23) = (  -0.3330482  -0.6660964   0.6660964), wk =   0.0277778
        k(   24) = (  -0.2497861  -0.5828343   0.5828343), wk =   0.0277778
        k(   25) = (  -0.1665241  -0.4995723   0.4995723), wk =   0.0277778
        k(   26) = (  -0.0832620  -0.4163102   0.4163102), wk =   0.0277778
        k(   27) = (  -0.0000000  -0.3330482   0.3330482), wk =   0.0138889
        k(   28) = (   0.4995723   0.0000000   0.0000000), wk =   0.0069444
        k(   29) = (   0.5828343   0.0832620  -0.0832620), wk =   0.0277778
        k(   30) = (   0.6660964   0.1665241  -0.1665241), wk =   0.0277778
        k(   31) = (  -0.2497861  -0.7493584   0.7493584), wk =   0.0277778
        k(   32) = (  -0.1665241  -0.6660964   0.6660964), wk =   0.0277778
        k(   33) = (  -0.0832620  -0.5828343   0.5828343), wk =   0.0277778
        k(   34) = (   0.0000000  -0.4995723   0.4995723), wk =   0.0138889
        k(   35) = (   0.6660964   0.0000000   0.0000000), wk =   0.0069444
        k(   36) = (   0.7493584   0.0832620  -0.0832620), wk =   0.0277778
        k(   37) = (  -0.1665241  -0.8326205   0.8326205), wk =   0.0277778
        k(   38) = (  -0.0832620  -0.7493584   0.7493584), wk =   0.0277778
        k(   39) = (  -0.0000000  -0.6660964   0.6660964), wk =   0.0138889
        k(   40) = (   0.8326205   0.0000000   0.0000000), wk =   0.0069444
        k(   41) = (  -0.0832620  -0.9158825   0.9158825), wk =   0.0277778
        k(   42) = (  -0.0000000  -0.8326205   0.8326205), wk =   0.0138889
        k(   43) = (  -0.9991446   0.0000000   0.0000000), wk =   0.0034722
        k(   44) = (   0.3330482   0.1665241  -0.0000000), wk =   0.0277778
        k(   45) = (   0.4163102   0.2497861  -0.0832620), wk =   0.0555556
        k(   46) = (   0.4995723   0.3330482  -0.1665241), wk =   0.0555556
        k(   47) = (  -0.4163102  -0.5828343   0.7493584), wk =   0.0555556
        k(   48) = (  -0.3330482  -0.4995723   0.6660964), wk =   0.0277778
        k(   49) = (   0.4995723   0.1665241   0.0000000), wk =   0.0277778
        k(   50) = (   0.5828343   0.2497861  -0.0832620), wk =   0.0555556
        k(   51) = (  -0.3330482  -0.6660964   0.8326205), wk =   0.0555556
        k(   52) = (  -0.2497861  -0.5828343   0.7493584), wk =   0.0555556
        k(   53) = (  -0.1665241  -0.4995723   0.6660964), wk =   0.0555556
        k(   54) = (  -0.0832620  -0.4163102   0.5828343), wk =   0.0555556
        k(   55) = (  -0.0000000  -0.3330482   0.4995723), wk =   0.0277778
        k(   56) = (   0.6660964   0.1665241   0.0000000), wk =   0.0277778
        k(   57) = (  -0.2497861  -0.7493584   0.9158825), wk =   0.0555556
        k(   58) = (  -0.1665241  -0.6660964   0.8326205), wk =   0.0555556
        k(   59) = (  -0.0832620  -0.5828343   0.7493584), wk =   0.0555556
        k(   60) = (  -0.0000000  -0.4995723   0.6660964), wk =   0.0277778
        k(   61) = (  -0.1665241  -0.8326205   0.9991446), wk =   0.0277778
        k(   62) = (  -0.0832620  -0.7493584   0.9158825), wk =   0.0555556
        k(   63) = (  -0.0000000  -0.6660964   0.8326205), wk =   0.0277778
        k(   64) = (  -0.9991446   0.1665241   0.0000000), wk =   0.0138889
        k(   65) = (  -0.3330482  -0.6660964   0.9991446), wk =   0.0277778
        k(   66) = (  -0.2497861  -0.5828343   0.9158825), wk =   0.0555556
        k(   67) = (  -0.1665241  -0.4995723   0.8326205), wk =   0.0277778
        k(   68) = (  -0.1665241  -0.6660964   0.9991446), wk =   0.0277778
        k(   69) = (  -0.0832620  -0.5828343   0.9158825), wk =   0.0555556
        k(   70) = (   0.0000000  -0.4995723   0.8326205), wk =   0.0277778
        k(   71) = (  -0.9991446   0.3330482   0.0000000), wk =   0.0138889
        k(   72) = (  -0.9991446   0.4995723   0.0000000), wk =   0.0069444

     Dense  grid:    48767 G-vectors     FFT dimensions: (  60,  60,  60)

     Estimated max dynamical RAM per process >      77.57 MB

     Estimated total dynamical RAM >     310.28 MB

     Check: negative core charge=   -0.000002

     Initial potential from superposition of free atoms

     starting charge      27.9983, renormalised to      28.0000
     Starting wfcs are   18 randomized atomic wfcs

     total cpu time spent up to now is       54.0 secs

     Self-consistent Calculation

     iteration #  1     ecut=   110.00 Ry     beta= 0.70
     Davidson diagonalization with overlap
     ethr =  1.00E-06,  avg # of iterations =  9.7

     total cpu time spent up to now is       63.8 secs

     total energy              =    -427.30187810 Ry
     estimated scf accuracy    <       0.03311301 Ry

     iteration #  2     ecut=   110.00 Ry     beta= 0.70
     Davidson diagonalization with overlap
     ethr =  1.18E-04,  avg # of iterations =  1.0

     total cpu time spent up to now is       67.6 secs

     total energy              =    -427.30280079 Ry
     estimated scf accuracy    <       0.00176968 Ry

     iteration #  3     ecut=   110.00 Ry     beta= 0.70
     Davidson diagonalization with overlap
     ethr =  6.32E-06,  avg # of iterations =  2.0

     total cpu time spent up to now is       71.7 secs

     total energy              =    -427.30289204 Ry
     estimated scf accuracy    <       0.00002487 Ry

     iteration #  4     ecut=   110.00 Ry     beta= 0.70
     Davidson diagonalization with overlap
     ethr =  8.88E-08,  avg # of iterations =  2.4

     total cpu time spent up to now is       77.0 secs

     total energy              =    -427.30290012 Ry
     estimated scf accuracy    <       0.00000274 Ry

     iteration #  5     ecut=   110.00 Ry     beta= 0.70
     Davidson diagonalization with overlap
     ethr =  9.79E-09,  avg # of iterations =  2.1

     total cpu time spent up to now is       81.9 secs

     total energy              =    -427.30290059 Ry
     estimated scf accuracy    <       0.00000006 Ry

     iteration #  6     ecut=   110.00 Ry     beta= 0.70
     Davidson diagonalization with overlap
     ethr =  2.07E-10,  avg # of iterations =  2.6

     total cpu time spent up to now is       87.2 secs

     total energy              =    -427.30290061 Ry
     estimated scf accuracy    <          4.2E-09 Ry

     iteration #  7     ecut=   110.00 Ry     beta= 0.70
     Davidson diagonalization with overlap
     ethr =  1.50E-11,  avg # of iterations =  2.4

     total cpu time spent up to now is       92.4 secs

     total energy              =    -427.30290061 Ry
     estimated scf accuracy    <          6.1E-11 Ry

     iteration #  8     ecut=   110.00 Ry     beta= 0.70
     Davidson diagonalization with overlap
     ethr =  2.18E-13,  avg # of iterations =  3.6

     total cpu time spent up to now is       98.1 secs

     total energy              =    -427.30290061 Ry
     estimated scf accuracy    <          8.3E-12 Ry

     iteration #  9     ecut=   110.00 Ry     beta= 0.70
     Davidson diagonalization with overlap
     ethr =  1.00E-13,  avg # of iterations =  1.8

     total cpu time spent up to now is      102.2 secs

     End of self-consistent calculation

          k = 0.0000 0.0000 0.0000 (  6081 PWs)   bands (ev):

   -16.5949 -16.5949 -16.5949 -16.5610 -16.5610 -16.3614 -16.3614 -16.3614
   -16.3503 -16.3503  -4.4271   8.0097   8.1785   8.1785   8.1785  10.7214

          k = 0.0833 0.0833-0.0833 (  6078 PWs)   bands (ev):

   -16.5989 -16.5989 -16.5938 -16.5555 -16.5555 -16.3682 -16.3682 -16.3626
   -16.3442 -16.3442  -4.3440   6.5882   8.0169   8.0169   9.0337  10.9379

          k = 0.1665 0.1665-0.1665 (  6099 PWs)   bands (ev):

   -16.6061 -16.6061 -16.5908 -16.5446 -16.5446 -16.3782 -16.3782 -16.3661
   -16.3362 -16.3362  -4.0978   5.0004   7.6716   7.6716   9.0514  11.3961

          k = 0.2498 0.2498-0.2498 (  6093 PWs)   bands (ev):

   -16.6121 -16.6121 -16.5867 -16.5341 -16.5341 -16.3865 -16.3865 -16.3709
   -16.3301 -16.3301  -3.7008   3.4896   7.3195   7.3195   8.7772  11.7811

          k = 0.3330 0.3330-0.3330 (  6108 PWs)   bands (ev):

   -16.6158 -16.6158 -16.5825 -16.5266 -16.5266 -16.3920 -16.3920 -16.3759
   -16.3261 -16.3261  -3.1869   2.1518   7.0411   7.0411   8.5196  11.9315

          k = 0.4163 0.4163-0.4163 (  6101 PWs)   bands (ev):

   -16.6176 -16.6176 -16.5793 -16.5226 -16.5226 -16.3946 -16.3946 -16.3795
   -16.3240 -16.3240  -2.6568   1.1178   6.8667   6.8667   8.3525  11.9285

          k =-0.4996-0.4996 0.4996 (  6116 PWs)   bands (ev):

   -16.6181 -16.6181 -16.5781 -16.5214 -16.5214 -16.3952 -16.3952 -16.3809
   -16.3234 -16.3234  -2.3910   0.6826   6.8077   6.8077   8.2954  11.9104

          k = 0.1665 0.0000 0.0000 (  6078 PWs)   bands (ev):

   -16.5992 -16.5974 -16.5974 -16.5572 -16.5498 -16.3801 -16.3576 -16.3576
   -16.3537 -16.3397  -4.3161   6.5161   7.7256   7.7256   9.6227  10.3932

          k = 0.2498 0.0833-0.0833 (  6082 PWs)   bands (ev):

   -16.6068 -16.6023 -16.5948 -16.5498 -16.5383 -16.3928 -16.3661 -16.3574
   -16.3457 -16.3336  -4.1236   5.3285   7.3368   7.4000   9.9105  10.4799

          k = 0.3330 0.1665-0.1665 (  6085 PWs)   bands (ev):

   -16.6146 -16.6084 -16.5890 -16.5396 -16.5266 -16.4030 -16.3762 -16.3626
   -16.3373 -16.3266  -3.7748   3.9004   6.9908   6.9950   9.6728  11.0210

          k = 0.4163 0.2498-0.2498 (  6091 PWs)   bands (ev):

   -16.6204 -16.6133 -16.5820 -16.5304 -16.5183 -16.4086 -16.3848 -16.3705
   -16.3307 -16.3210  -3.2938   2.5458   6.5976   6.7476   9.3890  11.4602

          k = 0.4996 0.3330-0.3330 (  6106 PWs)   bands (ev):

   -16.6236 -16.6167 -16.5754 -16.5232 -16.5152 -16.4085 -16.3919 -16.3788
   -16.3257 -16.3177  -2.7490   1.4128   6.2831   6.6300   9.1717  11.6440

          k =-0.4163-0.5828 0.5828 (  6103 PWs)   bands (ev):

   -16.6245 -16.6191 -16.5711 -16.5180 -16.5168 -16.4031 -16.3978 -16.3853
   -16.3222 -16.3170  -2.3488   0.7408   6.0815   6.6433   9.0552  11.7410

          k =-0.3330-0.4996 0.4996 (  6097 PWs)   bands (ev):

   -16.6232 -16.6204 -16.5708 -16.5210 -16.5152 -16.4023 -16.3954 -16.3877
   -16.3203 -16.3191  -2.4442   0.8917   6.0083   6.7828   9.0502  11.8726

          k =-0.2498-0.4163 0.4163 (  6091 PWs)   bands (ev):

   -16.6202 -16.6197 -16.5747 -16.5266 -16.5162 -16.4035 -16.3922 -16.3804
   -16.3239 -16.3202  -2.9311   1.7587   6.0742   7.0347   9.1545  11.9743

          k =-0.1665-0.3330 0.3330 (  6082 PWs)   bands (ev):

   -16.6179 -16.6143 -16.5814 -16.5336 -16.5222 -16.4000 -16.3889 -16.3692
   -16.3312 -16.3225  -3.4675   2.9806   6.2893   7.3725   9.3487  11.7401

          k =-0.0833-0.2498 0.2498 (  6084 PWs)   bands (ev):

   -16.6129 -16.6072 -16.5885 -16.5423 -16.5329 -16.3917 -16.3827 -16.3588
   -16.3408 -16.3274  -3.9084   4.3591   6.6708   7.7410   9.5601  11.3437

          k =-0.0000-0.1665 0.1665 (  6093 PWs)   bands (ev):

   -16.6058 -16.6001 -16.5936 -16.5513 -16.5454 -16.3805 -16.3742 -16.3537
   -16.3490 -16.3348  -4.2062   5.6918   7.2724   8.0179   9.5071  10.9706

          k = 0.3330 0.0000 0.0000 (  6082 PWs)   bands (ev):

   -16.6039 -16.6039 -16.6032 -16.5462 -16.5257 -16.4097 -16.3638 -16.3476
   -16.3476 -16.3341  -3.9846   4.9651   6.9270   6.9270   9.7681  10.7928

          k = 0.4163 0.0833-0.0833 (  6087 PWs)   bands (ev):

   -16.6139 -16.6088 -16.5958 -16.5372 -16.5121 -16.4242 -16.3734 -16.3497
   -16.3394 -16.3284  -3.6863   3.9671   6.4755   6.5712   9.7892  10.9084

          k = 0.4996 0.1665-0.1665 (  6081 PWs)   bands (ev):

   -16.6230 -16.6138 -16.5848 -16.5269 -16.5017 -16.4337 -16.3843 -16.3609
   -16.3312 -16.3189  -3.2451   2.7854   5.9433   6.3283   9.9330  11.2112

          k = 0.5828 0.2498-0.2498 (  6107 PWs)   bands (ev):

   -16.6299 -16.6181 -16.5727 -16.5172 -16.4976 -16.4355 -16.3950 -16.3742
   -16.3245 -16.3114  -2.7072   1.6731   5.4716   6.2226   9.8404  11.7281

          k =-0.3330-0.6661 0.6661 (  6084 PWs)   bands (ev):

   -16.6337 -16.6214 -16.5624 -16.5089 -16.5009 -16.4290 -16.4049 -16.3860
   -16.3193 -16.3073  -2.2172   0.8590   5.1273   6.2609   9.7574  11.9220

          k =-0.2498-0.5828 0.5828 (  6086 PWs)   bands (ev):

   -16.6339 -16.6237 -16.5570 -16.5096 -16.5028 -16.4163 -16.4132 -16.3936
   -16.3161 -16.3075  -2.1286   0.7289   4.9391   6.4376   9.7686  12.0311

          k =-0.1665-0.4996 0.4996 (  6099 PWs)   bands (ev):

   -16.6305 -16.6245 -16.5587 -16.5200 -16.5016 -16.4170 -16.4006 -16.3952
   -16.3150 -16.3122  -2.5403   1.3801   4.9332   6.7349   9.8720  12.1992

          k =-0.0833-0.4163 0.4163 (  6082 PWs)   bands (ev):

   -16.6238 -16.6231 -16.5676 -16.5286 -16.5074 -16.4139 -16.3958 -16.3804
   -16.3212 -16.3165  -3.0860   2.4029   5.1554   7.1151  10.0157  12.2081

          k =-0.0000-0.3330 0.3330 (  6107 PWs)   bands (ev):

   -16.6192 -16.6149 -16.5795 -16.5359 -16.5191 -16.4045 -16.3906 -16.3644
   -16.3332 -16.3207  -3.5636   3.4750   5.7035   7.5005  10.0251  11.7110

          k = 0.4996 0.0000 0.0000 (  6102 PWs)   bands (ev):

   -16.6122 -16.6122 -16.6006 -16.5289 -16.4958 -16.4438 -16.3799 -16.3379
   -16.3346 -16.3346  -3.4378   3.4566   6.1966   6.1966   9.2153  10.8676

          k = 0.5828 0.0833-0.0833 (  6094 PWs)   bands (ev):

   -16.6209 -16.6165 -16.5903 -16.5180 -16.4817 -16.4587 -16.3907 -16.3512
   -16.3276 -16.3220  -3.0401   2.6003   5.7138   5.9334   9.3198  10.7097

          k = 0.6661 0.1665-0.1665 (  6100 PWs)   bands (ev):

   -16.6307 -16.6205 -16.5745 -16.5067 -16.4750 -16.4643 -16.4028 -16.3686
   -16.3210 -16.3104  -2.5238   1.6672   5.0831   5.8107   9.5442  11.1996

          k =-0.2498-0.7494 0.7494 (  6098 PWs)   bands (ev):

   -16.6379 -16.6239 -16.5592 -16.4961 -16.4775 -16.4597 -16.4150 -16.3850
   -16.3159 -16.3024  -1.9843   0.8574   4.5473   5.8383   9.5959  12.3269

          k =-0.1665-0.6661 0.6661 (  6078 PWs)   bands (ev):

   -16.6411 -16.6263 -16.5494 -16.4877 -16.4863 -16.4484 -16.4258 -16.3953
   -16.3126 -16.2991  -1.7279   0.5211   4.2106   6.0128   9.6977  13.0688

          k =-0.0833-0.5828 0.5828 (  6080 PWs)   bands (ev):

   -16.6396 -16.6273 -16.5471 -16.5029 -16.4856 -16.4306 -16.4285 -16.3984
   -16.3114 -16.3014  -2.0431   0.9405   4.1363   6.3170   9.8933  13.1746

          k = 0.0000-0.4996 0.4996 (  6081 PWs)   bands (ev):

   -16.6334 -16.6263 -16.5534 -16.5192 -16.4935 -16.4256 -16.4066 -16.3953
   -16.3127 -16.3093  -2.5842   1.6949   4.4166   6.7119  10.0979  12.9182

          k = 0.6661 0.0000 0.0000 (  6106 PWs)   bands (ev):

   -16.6199 -16.6199 -16.5900 -16.5064 -16.4796 -16.4631 -16.4011 -16.3508
   -16.3222 -16.3222  -2.6847   2.0054   5.6414   5.6414   8.8677  10.1418

          k = 0.7494 0.0833-0.0833 (  6098 PWs)   bands (ev):

   -16.6270 -16.6231 -16.5765 -16.4940 -16.4936 -16.4494 -16.4135 -16.3657
   -16.3170 -16.3132  -2.1981   1.2603   5.1899   5.4878   9.0543  10.0334

          k =-0.1665-0.8326 0.8326 (  6086 PWs)   bands (ev):

   -16.6361 -16.6257 -16.5581 -16.4973 -16.4818 -16.4442 -16.4269 -16.3850
   -16.3129 -16.3033  -1.6398   0.5446   4.5403   5.4867   9.2454  10.8296

          k =-0.0833-0.7494 0.7494 (  6074 PWs)   bands (ev):

   -16.6424 -16.6276 -16.5461 -16.4852 -16.4716 -16.4540 -16.4390 -16.3973
   -16.3104 -16.2969  -1.2588   0.1236   4.0292   5.6375   9.3814  12.2425

          k =-0.0000-0.6661 0.6661 (  6051 PWs)   bands (ev):

   -16.6439 -16.6282 -16.5435 -16.4777 -16.4723 -16.4589 -16.4411 -16.3998
   -16.3099 -16.2960  -1.5145   0.4088   3.8468   5.9261   9.6186  13.8431

          k = 0.8326 0.0000 0.0000 (  6086 PWs)   bands (ev):

   -16.6252 -16.6252 -16.5714 -16.5144 -16.4806 -16.4300 -16.4260 -16.3716
   -16.3134 -16.3134  -1.7399   0.6348   5.2981   5.2981   8.7747   9.4285

          k =-0.0833-0.9159 0.9159 (  6087 PWs)   bands (ev):

   -16.6304 -16.6268 -16.5552 -16.5258 -16.4672 -16.4397 -16.4181 -16.3884
   -16.3109 -16.3077  -1.1818  -0.0121   4.9248   5.2600   8.9986   9.5473

          k =-0.0000-0.8326 0.8326 (  6078 PWs)   bands (ev):

   -16.6380 -16.6276 -16.5445 -16.5156 -16.4581 -16.4502 -16.4260 -16.3993
   -16.3099 -16.3006  -0.8109  -0.3658   4.3570   5.3767   9.1400  10.6793

          k =-0.9991 0.0000 0.0000 (  6074 PWs)   bands (ev):

   -16.6271 -16.6271 -16.5457 -16.5457 -16.4531 -16.4531 -16.3988 -16.3988
   -16.3102 -16.3102  -0.6243  -0.6243   5.1822   5.1822   8.9597   8.9597

          k = 0.3330 0.1665-0.0000 (  6081 PWs)   bands (ev):

   -16.6128 -16.6071 -16.5917 -16.5427 -16.5257 -16.4065 -16.3736 -16.3534
   -16.3435 -16.3277  -3.8786   4.4367   6.4799   7.3217  10.3465  10.4202

          k = 0.4163 0.2498-0.0833 (  6078 PWs)   bands (ev):

   -16.6197 -16.6143 -16.5826 -16.5337 -16.5137 -16.4170 -16.3825 -16.3641
   -16.3325 -16.3212  -3.4833   3.2658   5.8762   7.0380  10.2028  11.0127

          k = 0.4996 0.3330-0.1665 (  6094 PWs)   bands (ev):

   -16.6257 -16.6193 -16.5721 -16.5250 -16.5060 -16.4220 -16.3900 -16.3779
   -16.3238 -16.3156  -2.9700   2.0790   5.5194   6.7150   9.9899  11.4903

          k =-0.4163-0.5828 0.7494 (  6090 PWs)   bands (ev):

   -16.6299 -16.6219 -16.5638 -16.5173 -16.5045 -16.4200 -16.3980 -16.3888
   -16.3192 -16.3115  -2.4365   1.1071   5.3328   6.4811   9.8382  11.6066

          k =-0.3330-0.4996 0.6661 (  6088 PWs)   bands (ev):

   -16.6314 -16.6226 -16.5607 -16.5123 -16.5067 -16.4151 -16.4058 -16.3917
   -16.3178 -16.3099  -2.1652   0.6851   5.2753   6.3966   9.7849  11.6066

          k = 0.4996 0.1665 0.0000 (  6089 PWs)   bands (ev):

   -16.6188 -16.6158 -16.5885 -16.5279 -16.4982 -16.4391 -16.3825 -16.3555
   -16.3305 -16.3231  -3.3393   3.1453   5.7708   6.4129   9.8747  10.9531

          k = 0.5828 0.2498-0.0833 (  6092 PWs)   bands (ev):

   -16.6271 -16.6212 -16.5747 -16.5177 -16.4878 -16.4483 -16.3933 -16.3703
   -16.3217 -16.3144  -2.8597   2.1706   5.1985   6.1418  10.1627  11.2776

          k =-0.3330-0.6661 0.8326 (  6083 PWs)   bands (ev):

   -16.6345 -16.6243 -16.5607 -16.5078 -16.4847 -16.4489 -16.4050 -16.3852
   -16.3164 -16.3063  -2.3111   1.2388   4.7919   5.9499  10.1845  11.9114

          k =-0.2498-0.5828 0.7494 (  6083 PWs)   bands (ev):

   -16.6383 -16.6263 -16.5511 -16.5005 -16.4882 -16.4417 -16.4162 -16.3948
   -16.3134 -16.3021  -1.9015   0.6443   4.5358   5.9326  10.2153  11.9611

          k =-0.1665-0.4996 0.6661 (  6076 PWs)   bands (ev):

   -16.6378 -16.6271 -16.5492 -16.5051 -16.4887 -16.4360 -16.4160 -16.3977
   -16.3123 -16.3031  -2.0135   0.8017   4.4490   6.0938  10.3320  11.9068

          k =-0.0833-0.4163 0.5828 (  6090 PWs)   bands (ev):

   -16.6328 -16.6265 -16.5559 -16.5164 -16.4908 -16.4354 -16.3991 -16.3954
   -16.3134 -16.3092  -2.5150   1.5570   4.5837   6.3961  10.5054  11.8099

          k =-0.0000-0.3330 0.4996 (  6091 PWs)   bands (ev):

   -16.6242 -16.6240 -16.5691 -16.5259 -16.5003 -16.4287 -16.3903 -16.3790
   -16.3205 -16.3160  -3.0492   2.4637   5.0315   6.7633  10.6077  11.3074

          k = 0.6661 0.1665 0.0000 (  6102 PWs)   bands (ev):

   -16.6246 -16.6237 -16.5790 -16.5066 -16.4734 -16.4675 -16.4021 -16.3633
   -16.3183 -16.3165  -2.5997   1.8538   5.2550   5.6705   9.5108  10.5254

          k =-0.2498-0.7494 0.9159 (  6090 PWs)   bands (ev):

   -16.6337 -16.6270 -16.5613 -16.4951 -16.4809 -16.4586 -16.4149 -16.3817
   -16.3129 -16.3065  -2.0585   1.0701   4.7049   5.4699   9.8457  11.0514

          k =-0.1665-0.6661 0.8326 (  6082 PWs)   bands (ev):

   -16.6406 -16.6290 -16.5462 -16.4855 -16.4771 -16.4592 -16.4280 -16.3967
   -16.3099 -16.2991  -1.5560   0.4407   4.2269   5.4726   9.9651  12.3253

          k =-0.0833-0.5828 0.7494 (  6073 PWs)   bands (ev):

   -16.6429 -16.6299 -16.5404 -16.4846 -16.4700 -16.4603 -16.4354 -16.4020
   -16.3087 -16.2970  -1.5122   0.3951   3.9755   5.6605  10.1501  13.0714

          k =-0.0000-0.4996 0.6661 (  6074 PWs)   bands (ev):

   -16.6399 -16.6294 -16.5438 -16.5012 -16.4771 -16.4477 -16.4227 -16.4005
   -16.3095 -16.3008  -1.9758   0.9388   4.0621   5.9926  10.4046  12.7461

          k =-0.1665-0.8326 0.9991 (  6086 PWs)   bands (ev):

   -16.6292 -16.6291 -16.5615 -16.5068 -16.4811 -16.4360 -16.4267 -16.3812
   -16.3098 -16.3098  -1.6782   0.5903   4.9716   5.1729   9.3829   9.9168

          k =-0.0833-0.7494 0.9159 (  6080 PWs)   bands (ev):

   -16.6373 -16.6305 -16.5427 -16.5090 -16.4689 -16.4408 -16.4320 -16.3999
   -16.3077 -16.3014  -1.1230  -0.0147   4.4398   5.1274   9.6735  10.7653

          k =-0.0000-0.6661 0.8326 (  6082 PWs)   bands (ev):

   -16.6427 -16.6309 -16.5370 -16.4900 -16.4655 -16.4478 -16.4477 -16.4050
   -16.3072 -16.2964  -1.0291  -0.0876   4.0102   5.3178   9.8653  12.2633

          k =-0.9991 0.1665 0.0000 (  6080 PWs)   bands (ev):

   -16.6309 -16.6309 -16.5369 -16.5369 -16.4537 -16.4537 -16.4064 -16.4064
   -16.3069 -16.3069  -0.6023  -0.6023   4.9404   4.9404   9.5167   9.5167

          k =-0.3330-0.6661 0.9991 (  6107 PWs)   bands (ev):

   -16.6321 -16.6292 -16.5579 -16.5074 -16.4751 -16.4593 -16.4051 -16.3875
   -16.3108 -16.3094  -2.3540   1.4561   4.5835   5.8009  10.9521  11.2862

          k =-0.2498-0.5828 0.9159 (  6075 PWs)   bands (ev):

   -16.6390 -16.6313 -16.5429 -16.4963 -16.4701 -16.4617 -16.4208 -16.4005
   -16.3081 -16.3011  -1.8089   0.7453   4.2440   5.4955  11.1246  11.7963

          k =-0.1665-0.4996 0.8326 (  6070 PWs)   bands (ev):

   -16.6416 -16.6319 -16.5371 -16.4902 -16.4691 -16.4611 -16.4301 -16.4048
   -16.3072 -16.2981  -1.5099   0.3817   4.1409   5.3785  11.1347  11.7884

          k =-0.1665-0.6661 0.9991 (  6074 PWs)   bands (ev):

   -16.6367 -16.6343 -16.5410 -16.4899 -16.4832 -16.4479 -16.4296 -16.4008
   -16.3049 -16.3026  -1.5081   0.4459   4.4107   5.0197  10.7942  11.1311

          k =-0.0833-0.5828 0.9159 (  6079 PWs)   bands (ev):

   -16.6415 -16.6356 -16.5262 -16.4902 -16.4727 -16.4483 -16.4417 -16.4134
   -16.3032 -16.2976  -1.0584  -0.0234   4.1506   4.8747  11.0881  12.3795

          k = 0.0000-0.4996 0.8326 (  6076 PWs)   bands (ev):

   -16.6422 -16.6347 -16.5289 -16.4805 -16.4776 -16.4540 -16.4405 -16.4108
   -16.3041 -16.2972  -1.2727   0.2035   4.0363   5.0818  11.3189  12.5860

          k =-0.9991 0.3330 0.0000 (  6070 PWs)   bands (ev):

   -16.6373 -16.6373 -16.5179 -16.5179 -16.4565 -16.4565 -16.4220 -16.4220
   -16.3013 -16.3013  -0.5567  -0.5567   4.5487   4.5487  10.8605  10.8605

          k =-0.9991 0.4996 0.0000 (  6032 PWs)   bands (ev):

   -16.6400 -16.6400 -16.5059 -16.5059 -16.4602 -16.4602 -16.4300 -16.4300
   -16.2988 -16.2988  -0.5330  -0.5330   4.3813   4.3813  12.4140  12.4140

     the Fermi energy is     8.1868 ev

!    total energy              =    -427.30290061 Ry
     estimated scf accuracy    <          3.0E-14 Ry
     smearing contrib. (-TS)   =      -0.00000179 Ry
     internal energy E=F+TS    =    -427.30289883 Ry

     The total energy is F=E-TS. E is the sum of the following terms:
     one-electron contribution =    -280.72582586 Ry
     hartree contribution      =     166.09245861 Ry
     xc contribution           =    -116.61343128 Ry
     ewald contribution        =    -196.05610030 Ry

     convergence has been achieved in   9 iterations

     Forces acting on atoms (cartesian axes, Ry/au):

     atom    1 type  1   force =     0.00000000    0.00000000    0.00000000
     atom    2 type  1   force =     0.00000000    0.00000000    0.00000000

     Total force =     0.000000     Total SCF correction =     0.000000


     Computing stress (Cartesian axis) and pressure

          total   stress  (Ry/bohr**3)                   (kbar)     P=       19.38
   0.00013175   0.00000000   0.00000000           19.38        0.00        0.00
   0.00000000   0.00013175   0.00000000            0.00       19.38        0.00
   0.00000000   0.00000000   0.00013175            0.00        0.00       19.38


     Writing all to output data dir ./Ge.save/ :
     XML data file, charge density, pseudopotentials, collected wavefunctions
 
     init_run     :      3.61s CPU      3.66s WALL (       2 calls)
     electrons    :     95.76s CPU     96.54s WALL (       2 calls)
     forces       :      0.73s CPU      0.74s WALL (       2 calls)
     stress       :      2.66s CPU      2.67s WALL (       2 calls)

     Called by init_run:
     wfcinit      :      3.25s CPU      3.27s WALL (       2 calls)
     potinit      :      0.03s CPU      0.03s WALL (       2 calls)
     hinit0       :      0.17s CPU      0.17s WALL (       2 calls)

     Called by electrons:
     c_bands      :     82.52s CPU     83.17s WALL (      19 calls)
     sum_band     :     12.44s CPU     12.51s WALL (      19 calls)
     v_of_rho     :      0.27s CPU      0.27s WALL (      20 calls)
     newd         :      0.57s CPU      0.58s WALL (      20 calls)
     mix_rho      :      0.03s CPU      0.03s WALL (      19 calls)

     Called by c_bands:
     init_us_2    :      0.79s CPU      0.81s WALL (    3168 calls)
     cegterg      :     78.79s CPU     79.18s WALL (    1368 calls)

     Called by *egterg:
     cdiaghg      :      1.03s CPU      1.03s WALL (    5084 calls)
     h_psi        :     64.68s CPU     65.03s WALL (    5300 calls)
     s_psi        :      3.41s CPU      3.42s WALL (    5300 calls)
     g_psi        :      0.10s CPU      0.10s WALL (    3788 calls)

     Called by h_psi:
     h_psi:calbec :      4.24s CPU      4.26s WALL (    5300 calls)
     vloc_psi     :     56.80s CPU     57.11s WALL (    5300 calls)
                                        0.00s GPU  (    5300 calls)
     add_vuspsi   :      3.49s CPU      3.50s WALL (    5300 calls)

     General routines
     calbec       :      7.97s CPU      8.01s WALL (    9116 calls)
     fft          :      0.24s CPU      0.25s WALL (     271 calls)
     ffts         :      0.01s CPU      0.01s WALL (      19 calls)
     fftw         :     61.64s CPU     61.97s WALL (  147858 calls)
 
     Parallel routines
 
     PWSCF        :   1m42.87s CPU   1m45.07s WALL

 
   This run was terminated on:  13:44:52   4Mar2026            

=------------------------------------------------------------------------------=
   JOB DONE.
=------------------------------------------------------------------------------=
