
     Program PWSCF v.7.5 starts on  4Mar2026 at 13:48:38 

     This program is part of the open-source Quantum ESPRESSO suite
     for quantum simulation of materials; please cite
         "P. Giannozzi et al., J. Phys.:Condens. Matter 21 395502 (2009);
         "P. Giannozzi et al., J. Phys.:Condens. Matter 29 465901 (2017);
         "P. Giannozzi et al., J. Chem. Phys. 152 154105 (2020);
          URL http://www.quantum-espresso.org", 
     in publications or presentations arising from this work. More details at
     http://www.quantum-espresso.org/quote

     Parallel version (MPI), running on     4 processors

     MPI processes distributed on     1 nodes
     494275 MiB available memory on the printing compute node when the environment starts
 
     Waiting for input...
     Reading input from standard input

     Current dimensions of program PWSCF are:
     Max number of different atomic species (ntypx) = 10
     Max number of k-points (npk) =  40000
     Max angular momentum in pseudopotentials (lmaxx) =  4
     Message from routine setup:
     using ibrav=0 with symmetry is DISCOURAGED, use correct ibrav instead
 
     R & G space division:  proc/nbgrp/npool/nimage =       4
     Subspace diagonalization in iterative solution of the eigenvalue problem:
     a serial algorithm will be used

 
     Parallelization info
     --------------------
     sticks:   dense  smooth     PW     G-vecs:    dense   smooth      PW
     Min         469     469    133                13342    13342    2024
     Max         470     470    134                13345    13345    2025
     Sum        1879    1879    535                53377    53377    8099
 
     Using Slab Decomposition
 


     bravais-lattice index     =            0
     lattice parameter (alat)  =      11.0874  a.u.
     unit-cell volume          =     341.6207 (a.u.)^3
     number of atoms/cell      =            2
     number of atomic types    =            1
     number of electrons       =        28.00
     number of Kohn-Sham states=           16
     kinetic-energy cutoff     =     110.0000  Ry
     charge density cutoff     =     440.0000  Ry
     scf convergence threshold =      1.0E-12
     mixing beta               =       0.7000
     number of iterations used =            8  plain     mixing
     energy convergence thresh.=      1.0E-04
     force convergence thresh. =      1.0E-03
     press convergence thresh. =      5.0E-01
     Exchange-correlation=  SLA  PW   PBX  PBC
                           (   1   4   3   4   0   0   0)
     nstep                     =           50


     celldm(1)=  11.087400  celldm(2)=   0.000000  celldm(3)=   0.000000
     celldm(4)=   0.000000  celldm(5)=   0.000000  celldm(6)=   0.000000

     crystal axes: (cart. coord. in units of alat)
               a(1) = (   0.000000   0.500428   0.500428 )  
               a(2) = (   0.500428   0.000000   0.500428 )  
               a(3) = (   0.500428   0.500428   0.000000 )  

     reciprocal axes: (cart. coord. in units 2 pi/alat)
               b(1) = ( -0.999145  0.999145  0.999145 )  
               b(2) = (  0.999145 -0.999145  0.999145 )  
               b(3) = (  0.999145  0.999145 -0.999145 )  


     PseudoPot. # 1 for Ge read from file:
     ./ge_pbe_v1.4.uspp.F.UPF
     MD5 check sum: 9c9eaa91e581c3f09632fb3098b2c6b2
     Pseudo is Ultrasoft + core correction, Zval = 14.0
     Generated by new atomic code, or converted to UPF format
     Using radial grid of  873 points,  6 beta functions with: 
                l(1) =   0
                l(2) =   0
                l(3) =   1
                l(4) =   1
                l(5) =   2
                l(6) =   2
     Q(r) pseudized with  8 coefficients,  rinner =    1.400   1.400   1.400
                                                       1.400   1.400

     atomic species   valence    mass     pseudopotential
     Ge               14.00    72.63000     Ge( 1.00)

     48 Sym. Ops., with inversion, found (24 have fractional translation)



   Cartesian axes

     site n.     atom                  positions (alat units)
         1        Ge     tau(   1) = (   0.0000000   0.0000000   0.0000000  )
         2        Ge     tau(   2) = (   0.2502140   0.2502140   0.2502140  )

     number of k points=    72  Gaussian smearing, width (Ry)=  0.0020
                       cart. coord. in units 2pi/alat
        k(    1) = (   0.0000000   0.0000000   0.0000000), wk =   0.0011574
        k(    2) = (   0.0832620   0.0832620  -0.0832620), wk =   0.0092593
        k(    3) = (   0.1665241   0.1665241  -0.1665241), wk =   0.0092593
        k(    4) = (   0.2497861   0.2497861  -0.2497861), wk =   0.0092593
        k(    5) = (   0.3330482   0.3330482  -0.3330482), wk =   0.0092593
        k(    6) = (   0.4163102   0.4163102  -0.4163102), wk =   0.0092593
        k(    7) = (  -0.4995723  -0.4995723   0.4995723), wk =   0.0046296
        k(    8) = (   0.1665241   0.0000000   0.0000000), wk =   0.0069444
        k(    9) = (   0.2497861   0.0832620  -0.0832620), wk =   0.0277778
        k(   10) = (   0.3330482   0.1665241  -0.1665241), wk =   0.0277778
        k(   11) = (   0.4163102   0.2497861  -0.2497861), wk =   0.0277778
        k(   12) = (   0.4995723   0.3330482  -0.3330482), wk =   0.0277778
        k(   13) = (  -0.4163102  -0.5828343   0.5828343), wk =   0.0277778
        k(   14) = (  -0.3330482  -0.4995723   0.4995723), wk =   0.0277778
        k(   15) = (  -0.2497861  -0.4163102   0.4163102), wk =   0.0277778
        k(   16) = (  -0.1665241  -0.3330482   0.3330482), wk =   0.0277778
        k(   17) = (  -0.0832620  -0.2497861   0.2497861), wk =   0.0277778
        k(   18) = (  -0.0000000  -0.1665241   0.1665241), wk =   0.0138889
        k(   19) = (   0.3330482   0.0000000   0.0000000), wk =   0.0069444
        k(   20) = (   0.4163102   0.0832620  -0.0832620), wk =   0.0277778
        k(   21) = (   0.4995723   0.1665241  -0.1665241), wk =   0.0277778
        k(   22) = (   0.5828343   0.2497861  -0.2497861), wk =   0.0277778
        k(   23) = (  -0.3330482  -0.6660964   0.6660964), wk =   0.0277778
        k(   24) = (  -0.2497861  -0.5828343   0.5828343), wk =   0.0277778
        k(   25) = (  -0.1665241  -0.4995723   0.4995723), wk =   0.0277778
        k(   26) = (  -0.0832620  -0.4163102   0.4163102), wk =   0.0277778
        k(   27) = (  -0.0000000  -0.3330482   0.3330482), wk =   0.0138889
        k(   28) = (   0.4995723   0.0000000   0.0000000), wk =   0.0069444
        k(   29) = (   0.5828343   0.0832620  -0.0832620), wk =   0.0277778
        k(   30) = (   0.6660964   0.1665241  -0.1665241), wk =   0.0277778
        k(   31) = (  -0.2497861  -0.7493584   0.7493584), wk =   0.0277778
        k(   32) = (  -0.1665241  -0.6660964   0.6660964), wk =   0.0277778
        k(   33) = (  -0.0832620  -0.5828343   0.5828343), wk =   0.0277778
        k(   34) = (   0.0000000  -0.4995723   0.4995723), wk =   0.0138889
        k(   35) = (   0.6660964   0.0000000   0.0000000), wk =   0.0069444
        k(   36) = (   0.7493584   0.0832620  -0.0832620), wk =   0.0277778
        k(   37) = (  -0.1665241  -0.8326205   0.8326205), wk =   0.0277778
        k(   38) = (  -0.0832620  -0.7493584   0.7493584), wk =   0.0277778
        k(   39) = (  -0.0000000  -0.6660964   0.6660964), wk =   0.0138889
        k(   40) = (   0.8326205   0.0000000   0.0000000), wk =   0.0069444
        k(   41) = (  -0.0832620  -0.9158825   0.9158825), wk =   0.0277778
        k(   42) = (  -0.0000000  -0.8326205   0.8326205), wk =   0.0138889
        k(   43) = (  -0.9991446   0.0000000   0.0000000), wk =   0.0034722
        k(   44) = (   0.3330482   0.1665241  -0.0000000), wk =   0.0277778
        k(   45) = (   0.4163102   0.2497861  -0.0832620), wk =   0.0555556
        k(   46) = (   0.4995723   0.3330482  -0.1665241), wk =   0.0555556
        k(   47) = (  -0.4163102  -0.5828343   0.7493584), wk =   0.0555556
        k(   48) = (  -0.3330482  -0.4995723   0.6660964), wk =   0.0277778
        k(   49) = (   0.4995723   0.1665241   0.0000000), wk =   0.0277778
        k(   50) = (   0.5828343   0.2497861  -0.0832620), wk =   0.0555556
        k(   51) = (  -0.3330482  -0.6660964   0.8326205), wk =   0.0555556
        k(   52) = (  -0.2497861  -0.5828343   0.7493584), wk =   0.0555556
        k(   53) = (  -0.1665241  -0.4995723   0.6660964), wk =   0.0555556
        k(   54) = (  -0.0832620  -0.4163102   0.5828343), wk =   0.0555556
        k(   55) = (  -0.0000000  -0.3330482   0.4995723), wk =   0.0277778
        k(   56) = (   0.6660964   0.1665241   0.0000000), wk =   0.0277778
        k(   57) = (  -0.2497861  -0.7493584   0.9158825), wk =   0.0555556
        k(   58) = (  -0.1665241  -0.6660964   0.8326205), wk =   0.0555556
        k(   59) = (  -0.0832620  -0.5828343   0.7493584), wk =   0.0555556
        k(   60) = (  -0.0000000  -0.4995723   0.6660964), wk =   0.0277778
        k(   61) = (  -0.1665241  -0.8326205   0.9991446), wk =   0.0277778
        k(   62) = (  -0.0832620  -0.7493584   0.9158825), wk =   0.0555556
        k(   63) = (  -0.0000000  -0.6660964   0.8326205), wk =   0.0277778
        k(   64) = (  -0.9991446   0.1665241   0.0000000), wk =   0.0138889
        k(   65) = (  -0.3330482  -0.6660964   0.9991446), wk =   0.0277778
        k(   66) = (  -0.2497861  -0.5828343   0.9158825), wk =   0.0555556
        k(   67) = (  -0.1665241  -0.4995723   0.8326205), wk =   0.0277778
        k(   68) = (  -0.1665241  -0.6660964   0.9991446), wk =   0.0277778
        k(   69) = (  -0.0832620  -0.5828343   0.9158825), wk =   0.0555556
        k(   70) = (   0.0000000  -0.4995723   0.8326205), wk =   0.0277778
        k(   71) = (  -0.9991446   0.3330482   0.0000000), wk =   0.0138889
        k(   72) = (  -0.9991446   0.4995723   0.0000000), wk =   0.0069444

     Dense  grid:    53377 G-vectors     FFT dimensions: (  60,  60,  60)

     Estimated max dynamical RAM per process >      84.12 MB

     Estimated total dynamical RAM >     336.49 MB

     Check: negative core charge=   -0.000002

     Initial potential from superposition of free atoms

     starting charge      27.9983, renormalised to      28.0000
     Starting wfcs are   18 randomized atomic wfcs

     total cpu time spent up to now is        2.0 secs

     Self-consistent Calculation

     iteration #  1     ecut=   110.00 Ry     beta= 0.70
     Davidson diagonalization with overlap
     ethr =  1.00E-02,  avg # of iterations =  2.3

     Threshold (ethr) on eigenvalues was too large:
     Diagonalizing with lowered threshold

     Davidson diagonalization with overlap
     ethr =  9.27E-05,  avg # of iterations =  3.0

     total cpu time spent up to now is       10.6 secs

     total energy              =    -427.30066736 Ry
     estimated scf accuracy    <       0.02824430 Ry

     iteration #  2     ecut=   110.00 Ry     beta= 0.70
     Davidson diagonalization with overlap
     ethr =  1.01E-04,  avg # of iterations =  1.0

     total cpu time spent up to now is       14.5 secs

     total energy              =    -427.30136250 Ry
     estimated scf accuracy    <       0.00171893 Ry

     iteration #  3     ecut=   110.00 Ry     beta= 0.70
     Davidson diagonalization with overlap
     ethr =  6.14E-06,  avg # of iterations =  2.6

     total cpu time spent up to now is       18.7 secs

     total energy              =    -427.30144663 Ry
     estimated scf accuracy    <       0.00002716 Ry

     iteration #  4     ecut=   110.00 Ry     beta= 0.70
     Davidson diagonalization with overlap
     ethr =  9.70E-08,  avg # of iterations =  2.8

     total cpu time spent up to now is       24.1 secs

     total energy              =    -427.30145851 Ry
     estimated scf accuracy    <       0.00000262 Ry

     iteration #  5     ecut=   110.00 Ry     beta= 0.70
     Davidson diagonalization with overlap
     ethr =  9.34E-09,  avg # of iterations =  2.1

     total cpu time spent up to now is       29.2 secs

     total energy              =    -427.30145910 Ry
     estimated scf accuracy    <       0.00000009 Ry

     iteration #  6     ecut=   110.00 Ry     beta= 0.70
     Davidson diagonalization with overlap
     ethr =  3.19E-10,  avg # of iterations =  3.1

     total cpu time spent up to now is       34.8 secs

     total energy              =    -427.30145915 Ry
     estimated scf accuracy    <          5.7E-09 Ry

     iteration #  7     ecut=   110.00 Ry     beta= 0.70
     Davidson diagonalization with overlap
     ethr =  2.04E-11,  avg # of iterations =  2.7

     total cpu time spent up to now is       40.1 secs

     total energy              =    -427.30145915 Ry
     estimated scf accuracy    <          1.1E-10 Ry

     iteration #  8     ecut=   110.00 Ry     beta= 0.70
     Davidson diagonalization with overlap
     ethr =  3.82E-13,  avg # of iterations =  3.6

     total cpu time spent up to now is       46.0 secs

     total energy              =    -427.30145915 Ry
     estimated scf accuracy    <          2.0E-11 Ry

     iteration #  9     ecut=   110.00 Ry     beta= 0.70
     Davidson diagonalization with overlap
     ethr =  1.00E-13,  avg # of iterations =  2.0

     total cpu time spent up to now is       51.2 secs

     End of self-consistent calculation

          k = 0.0000 0.0000 0.0000 (  6615 PWs)   bands (ev):

   -17.6005 -17.6005 -17.6005 -17.5729 -17.5729 -17.4149 -17.4149 -17.4149
   -17.4100 -17.4100  -4.8950   6.1317   7.0767   7.0767   7.0767   9.5726

          k = 0.0833 0.0833-0.0833 (  6651 PWs)   bands (ev):

   -17.6036 -17.6036 -17.5996 -17.5687 -17.5687 -17.4216 -17.4216 -17.4159
   -17.4038 -17.4038  -4.8188   5.1848   6.9345   6.9345   7.5607   9.7661

          k = 0.1665 0.1665-0.1665 (  6645 PWs)   bands (ev):

   -17.6092 -17.6092 -17.5972 -17.5603 -17.5603 -17.4300 -17.4300 -17.4186
   -17.3971 -17.3971  -4.5936   3.8041   6.6251   6.6251   7.6281  10.1846

          k = 0.2498 0.2498-0.2498 (  6627 PWs)   bands (ev):

   -17.6140 -17.6140 -17.5938 -17.5520 -17.5520 -17.4370 -17.4370 -17.4224
   -17.3920 -17.3920  -4.2319   2.4531   6.3050   6.3050   7.3976  10.5563

          k = 0.3330 0.3330-0.3330 (  6634 PWs)   bands (ev):

   -17.6171 -17.6171 -17.5903 -17.5460 -17.5460 -17.4417 -17.4417 -17.4264
   -17.3886 -17.3886  -3.7675   1.2488   6.0498   6.0498   7.1594  10.7292

          k = 0.4163 0.4163-0.4163 (  6646 PWs)   bands (ev):

   -17.6187 -17.6187 -17.5877 -17.5427 -17.5427 -17.4440 -17.4440 -17.4293
   -17.3868 -17.3868  -3.2961   0.3226   5.8893   5.8893   7.0006  10.7543

          k =-0.4996-0.4996 0.4996 (  6658 PWs)   bands (ev):

   -17.6191 -17.6191 -17.5867 -17.5417 -17.5417 -17.4447 -17.4447 -17.4304
   -17.3862 -17.3862  -3.0650  -0.0617   5.8348   5.8348   6.9458  10.7473

          k = 0.1665 0.0000 0.0000 (  6643 PWs)   bands (ev):

   -17.6036 -17.6026 -17.6026 -17.5700 -17.5644 -17.4307 -17.4126 -17.4120
   -17.4120 -17.4006  -4.7932   5.0722   6.6803   6.6803   8.0949   9.2706

          k = 0.2498 0.0833-0.0833 (  6637 PWs)   bands (ev):

   -17.6096 -17.6064 -17.6003 -17.5643 -17.5555 -17.4406 -17.4212 -17.4121
   -17.4039 -17.3954  -4.6170   4.0527   6.3313   6.3611   8.4265   9.3201

          k = 0.3330 0.1665-0.1665 (  6633 PWs)   bands (ev):

   -17.6158 -17.6113 -17.5955 -17.5563 -17.5464 -17.4488 -17.4293 -17.4166
   -17.3971 -17.3895  -4.2987   2.7954   5.9727   6.0157   8.2728   9.8151

          k = 0.4163 0.2498-0.2498 (  6641 PWs)   bands (ev):

   -17.6205 -17.6153 -17.5898 -17.5490 -17.5398 -17.4536 -17.4363 -17.4229
   -17.3918 -17.3848  -3.8625   1.5845   5.5988   5.7914   8.0239  10.2653

          k = 0.4996 0.3330-0.3330 (  6634 PWs)   bands (ev):

   -17.6232 -17.6181 -17.5845 -17.5432 -17.5371 -17.4539 -17.4421 -17.4294
   -17.3879 -17.3820  -3.3746   0.5703   5.3070   5.6807   7.8223  10.4832

          k =-0.4163-0.5828 0.5828 (  6643 PWs)   bands (ev):

   -17.6240 -17.6199 -17.5811 -17.5391 -17.5382 -17.4502 -17.4467 -17.4344
   -17.3853 -17.3813  -3.0240  -0.0244   5.1245   5.6895   7.7105  10.5964

          k =-0.3330-0.4996 0.4996 (  6652 PWs)   bands (ev):

   -17.6231 -17.6208 -17.5810 -17.5414 -17.5371 -17.4499 -17.4448 -17.4358
   -17.3840 -17.3828  -3.1067   0.1082   5.0647   5.8138   7.7017  10.7171

          k =-0.2498-0.4163 0.4163 (  6649 PWs)   bands (ev):

   -17.6205 -17.6204 -17.5841 -17.5459 -17.5380 -17.4505 -17.4415 -17.4308
   -17.3864 -17.3842  -3.5368   0.8794   5.1371   6.0411   7.7933  10.7759

          k =-0.1665-0.3330 0.3330 (  6651 PWs)   bands (ev):

   -17.6184 -17.6160 -17.5895 -17.5515 -17.5429 -17.4473 -17.4382 -17.4225
   -17.3921 -17.3862  -4.0197   1.9740   5.3509   6.3467   7.9621  10.5305

          k =-0.0833-0.2498 0.2498 (  6632 PWs)   bands (ev):

   -17.6144 -17.6103 -17.5952 -17.5584 -17.5513 -17.4405 -17.4330 -17.4145
   -17.3997 -17.3903  -4.4206   3.2037   5.7208   6.6793   8.1238  10.1489

          k =-0.0000-0.1665 0.1665 (  6639 PWs)   bands (ev):

   -17.6089 -17.6047 -17.5993 -17.5654 -17.5610 -17.4314 -17.4261 -17.4090
   -17.4078 -17.3963  -4.6927   4.3852   6.2792   6.9290   8.0142   9.8038

          k = 0.3330 0.0000 0.0000 (  6639 PWs)   bands (ev):

   -17.6079 -17.6079 -17.6062 -17.5615 -17.5457 -17.4536 -17.4205 -17.4043
   -17.4043 -17.3962  -4.4896   3.6755   5.9631   5.9631   8.6918   9.2029

          k = 0.4163 0.0833-0.0833 (  6638 PWs)   bands (ev):

   -17.6153 -17.6118 -17.6006 -17.5545 -17.5352 -17.4649 -17.4278 -17.4068
   -17.3982 -17.3909  -4.2169   2.7896   5.5388   5.6391   8.6922   9.4004

          k = 0.4996 0.1665-0.1665 (  6653 PWs)   bands (ev):

   -17.6226 -17.6158 -17.5917 -17.5464 -17.5269 -17.4725 -17.4363 -17.4160
   -17.3920 -17.3831  -3.8156   1.7434   5.0346   5.4157   8.7306   9.8026

          k = 0.5828 0.2498-0.2498 (  6648 PWs)   bands (ev):

   -17.6281 -17.6192 -17.5821 -17.5388 -17.5236 -17.4742 -17.4446 -17.4266
   -17.3868 -17.3771  -3.3308   0.7548   4.5910   5.3164   8.5886  10.3774

          k =-0.3330-0.6661 0.6661 (  6649 PWs)   bands (ev):

   -17.6312 -17.6218 -17.5740 -17.5322 -17.5260 -17.4695 -17.4522 -17.4359
   -17.3830 -17.3738  -2.8972   0.0356   4.2729   5.3481   8.4811  10.6532

          k =-0.2498-0.5828 0.5828 (  6664 PWs)   bands (ev):

   -17.6314 -17.6234 -17.5699 -17.5326 -17.5276 -17.4596 -17.4584 -17.4420
   -17.3807 -17.3738  -2.8209  -0.0774   4.1072   5.5059   8.4627  10.8034

          k =-0.1665-0.4996 0.4996 (  6636 PWs)   bands (ev):

   -17.6288 -17.6239 -17.5714 -17.5407 -17.5268 -17.4609 -17.4466 -17.4441
   -17.3801 -17.3774  -3.1834   0.4961   4.1179   5.7732   8.5274  10.9709

          k =-0.0833-0.4163 0.4163 (  6646 PWs)   bands (ev):

   -17.6235 -17.6226 -17.5786 -17.5475 -17.5315 -17.4581 -17.4430 -17.4323
   -17.3842 -17.3815  -3.6730   1.4060   4.3445   6.1152   8.6220  10.9566

          k =-0.0000-0.3330 0.3330 (  6643 PWs)   bands (ev):

   -17.6193 -17.6165 -17.5880 -17.5533 -17.5406 -17.4505 -17.4390 -17.4197
   -17.3933 -17.3849  -4.1062   2.3735   4.8594   6.4614   8.5785  10.4898

          k = 0.4996 0.0000 0.0000 (  6643 PWs)   bands (ev):

   -17.6146 -17.6146 -17.6036 -17.5481 -17.5224 -17.4800 -17.4330 -17.3992
   -17.3944 -17.3944  -3.9891   2.2991   5.2990   5.2990   8.1792   9.5011

          k = 0.5828 0.0833-0.0833 (  6655 PWs)   bands (ev):

   -17.6212 -17.6181 -17.5956 -17.5397 -17.5114 -17.4917 -17.4413 -17.4091
   -17.3891 -17.3851  -3.6263   1.5259   4.8585   5.0582   8.2687   9.4291

          k = 0.6661 0.1665-0.1665 (  6659 PWs)   bands (ev):

   -17.6288 -17.6212 -17.5831 -17.5309 -17.5058 -17.4966 -17.4507 -17.4226
   -17.3841 -17.3763  -3.1585   0.6894   4.2818   4.9444   8.4532   9.9035

          k =-0.2498-0.7494 0.7494 (  6661 PWs)   bands (ev):

   -17.6345 -17.6238 -17.5711 -17.5226 -17.5075 -17.4933 -17.4601 -17.4355
   -17.3803 -17.3700  -2.6764  -0.0308   3.7915   4.9674   8.4754  10.9101

          k =-0.1665-0.6661 0.6661 (  6670 PWs)   bands (ev):

   -17.6371 -17.6256 -17.5634 -17.5160 -17.5146 -17.4844 -17.4682 -17.4436
   -17.3780 -17.3674  -2.4538  -0.3238   3.4883   5.1240   8.5398  11.5942

          k =-0.0833-0.5828 0.5828 (  6663 PWs)   bands (ev):

   -17.6359 -17.6262 -17.5618 -17.5275 -17.5146 -17.4716 -17.4688 -17.4462
   -17.3773 -17.3691  -2.7335   0.0483   3.4308   5.3982   8.6769  11.7670

          k = 0.0000-0.4996 0.4996 (  6647 PWs)   bands (ev):

   -17.6310 -17.6252 -17.5672 -17.5401 -17.5208 -17.4673 -17.4509 -17.4446
   -17.3784 -17.3751  -3.2189   0.7322   3.6916   5.7535   8.7944  11.6034

          k = 0.6661 0.0000 0.0000 (  6658 PWs)   bands (ev):

   -17.6208 -17.6208 -17.5949 -17.5308 -17.5078 -17.4969 -17.4494 -17.4092
   -17.3849 -17.3849  -3.3007   0.9748   4.7920   4.7920   7.8585   8.9927

          k = 0.7494 0.0833-0.0833 (  6658 PWs)   bands (ev):

   -17.6262 -17.6234 -17.5843 -17.5212 -17.5188 -17.4861 -17.4590 -17.4207
   -17.3810 -17.3782  -2.8578   0.2966   4.3875   4.6511   8.0281   8.9099

          k =-0.1665-0.8326 0.8326 (  6667 PWs)   bands (ev):

   -17.6332 -17.6254 -17.5699 -17.5220 -17.5117 -17.4820 -17.4693 -17.4357
   -17.3780 -17.3707  -2.3544  -0.3527   3.8076   4.6487   8.1972   9.6407

          k =-0.0833-0.7494 0.7494 (  6665 PWs)   bands (ev):

   -17.6381 -17.6267 -17.5604 -17.5129 -17.5038 -17.4895 -17.4785 -17.4454
   -17.3762 -17.3657  -2.0208  -0.7263   3.3515   4.7847   8.3063  10.9319

          k =-0.0000-0.6661 0.6661 (  6663 PWs)   bands (ev):

   -17.6392 -17.6271 -17.5586 -17.5079 -17.5044 -17.4925 -17.4798 -17.4473
   -17.3759 -17.3650  -2.2559  -0.4604   3.1874   5.0455   8.4934  12.3274

          k = 0.8326 0.0000 0.0000 (  6662 PWs)   bands (ev):

   -17.6251 -17.6251 -17.5800 -17.5350 -17.5109 -17.4710 -17.4687 -17.4255
   -17.3783 -17.3783  -2.4384  -0.2743   4.4780   4.4780   7.7761   8.3784

          k =-0.0833-0.9159 0.9159 (  6660 PWs)   bands (ev):

   -17.6291 -17.6263 -17.5672 -17.5441 -17.5005 -17.4792 -17.4617 -17.4385
   -17.3764 -17.3739  -1.9314  -0.8648   4.1481   4.4427   7.9825   8.4828

          k =-0.0000-0.8326 0.8326 (  6673 PWs)   bands (ev):

   -17.6348 -17.6269 -17.5589 -17.5366 -17.4935 -17.4872 -17.4677 -17.4470
   -17.3757 -17.3686  -1.6068  -1.1807   3.6469   4.5483   8.1051   9.5155

          k =-0.9991 0.0000 0.0000 (  6710 PWs)   bands (ev):

   -17.6266 -17.6266 -17.5596 -17.5596 -17.4897 -17.4897 -17.4467 -17.4467
   -17.3759 -17.3759  -1.4213  -1.4213   4.3719   4.3719   7.9509   7.9509

          k = 0.3330 0.1665-0.0000 (  6642 PWs)   bands (ev):

   -17.6144 -17.6103 -17.5977 -17.5588 -17.5457 -17.4513 -17.4270 -17.4105
   -17.4012 -17.3905  -4.3930   3.2362   5.5633   6.2933   8.8327   9.2818

          k = 0.4163 0.2498-0.0833 (  6644 PWs)   bands (ev):

   -17.6198 -17.6160 -17.5904 -17.5516 -17.5364 -17.4597 -17.4341 -17.4187
   -17.3929 -17.3852  -4.0328   2.1891   4.9990   6.0392   8.7893   9.7841

          k = 0.4996 0.3330-0.1665 (  6652 PWs)   bands (ev):

   -17.6248 -17.6200 -17.5820 -17.5448 -17.5302 -17.4639 -17.4404 -17.4292
   -17.3864 -17.3805  -3.5687   1.1321   4.6474   5.7524   8.6059  10.2881

          k =-0.4163-0.5828 0.7494 (  6649 PWs)   bands (ev):

   -17.6283 -17.6220 -17.5753 -17.5386 -17.5289 -17.4627 -17.4469 -17.4376
   -17.3830 -17.3771  -3.0932   0.2689   4.4578   5.5460   8.4672  10.4645

          k =-0.3330-0.4996 0.6661 (  6656 PWs)   bands (ev):

   -17.6295 -17.6226 -17.5728 -17.5347 -17.5306 -17.4590 -17.4527 -17.4401
   -17.3820 -17.3757  -2.8566  -0.1014   4.3982   5.4720   8.4177  10.4860

          k = 0.4996 0.1665 0.0000 (  6651 PWs)   bands (ev):

   -17.6193 -17.6173 -17.5947 -17.5473 -17.5243 -17.4765 -17.4349 -17.4119
   -17.3912 -17.3864  -3.9002   2.0360   4.9172   5.4837   8.7786   9.5028

          k = 0.5828 0.2498-0.0833 (  6659 PWs)   bands (ev):

   -17.6259 -17.6215 -17.5838 -17.5393 -17.5161 -17.4839 -17.4433 -17.4235
   -17.3847 -17.3795  -3.4647   1.1587   4.3873   5.2427   8.9866   9.8707

          k =-0.3330-0.6661 0.8326 (  6653 PWs)   bands (ev):

   -17.6318 -17.6240 -17.5726 -17.5315 -17.5135 -17.4847 -17.4523 -17.4354
   -17.3808 -17.3731  -2.9719   0.3292   4.0012   5.0738   8.9493  10.5350

          k =-0.2498-0.5828 0.7494 (  6653 PWs)   bands (ev):

   -17.6349 -17.6255 -17.5650 -17.5256 -17.5163 -17.4793 -17.4608 -17.4431
   -17.3785 -17.3698  -2.6114  -0.1933   3.7619   5.0590   8.9414  10.7129

          k =-0.1665-0.4996 0.6661 (  6660 PWs)   bands (ev):

   -17.6345 -17.6261 -17.5636 -17.5291 -17.5168 -17.4750 -17.4602 -17.4454
   -17.3778 -17.3704  -2.7103  -0.0547   3.6903   5.2023   9.0110  10.7114

          k =-0.0833-0.4163 0.5828 (  6650 PWs)   bands (ev):

   -17.6306 -17.6254 -17.5691 -17.5380 -17.5186 -17.4744 -17.4474 -17.4430
   -17.3787 -17.3752  -3.1563   0.6145   3.8297   5.4715   9.1267  10.5966

          k =-0.0000-0.3330 0.4996 (  6664 PWs)   bands (ev):

   -17.6239 -17.6233 -17.5797 -17.5455 -17.5260 -17.4689 -17.4402 -17.4304
   -17.3836 -17.3810  -3.6383   1.4347   4.2480   5.7976   9.1594  10.0932

          k = 0.6661 0.1665 0.0000 (  6647 PWs)   bands (ev):

   -17.6241 -17.6237 -17.5866 -17.5309 -17.5032 -17.5003 -17.4501 -17.4185
   -17.3819 -17.3809  -3.2252   0.8421   4.4468   4.8215   8.4437   9.3063

          k =-0.2498-0.7494 0.9159 (  6662 PWs)   bands (ev):

   -17.6313 -17.6262 -17.5727 -17.5218 -17.5092 -17.4933 -17.4600 -17.4329
   -17.3780 -17.3731  -2.7358   0.1304   3.9500   4.6432   8.7353   9.8046

          k =-0.1665-0.6661 0.8326 (  6664 PWs)   bands (ev):

   -17.6366 -17.6277 -17.5608 -17.5142 -17.5067 -17.4937 -17.4700 -17.4448
   -17.3758 -17.3674  -2.2885  -0.4329   3.5195   4.6450   8.8225  10.9535

          k =-0.0833-0.5828 0.7494 (  6664 PWs)   bands (ev):

   -17.6384 -17.6284 -17.5563 -17.5133 -17.5024 -17.4937 -17.4754 -17.4491
   -17.3750 -17.3658  -2.2543  -0.4689   3.2964   4.8132   8.9626  11.6645

          k =-0.0000-0.4996 0.6661 (  6646 PWs)   bands (ev):

   -17.6362 -17.6278 -17.5593 -17.5262 -17.5080 -17.4840 -17.4650 -17.4478
   -17.3757 -17.3686  -2.6697   0.0263   3.3755   5.1111   9.1403  11.4074

          k =-0.1665-0.8326 0.9991 (  6660 PWs)   bands (ev):

   -17.6280 -17.6279 -17.5725 -17.5293 -17.5112 -17.4757 -17.4692 -17.4327
   -17.3756 -17.3756  -2.3851  -0.3166   4.1893   4.3739   8.3280   8.8099

          k =-0.0833-0.7494 0.9159 (  6663 PWs)   bands (ev):

   -17.6342 -17.6290 -17.5577 -17.5313 -17.5016 -17.4800 -17.4725 -17.4474
   -17.3740 -17.3692  -1.8854  -0.8687   3.7202   4.3322   8.5865   9.5875

          k =-0.0000-0.6661 0.8326 (  6665 PWs)   bands (ev):

   -17.6383 -17.6292 -17.5534 -17.5167 -17.4989 -17.4851 -17.4848 -17.4514
   -17.3738 -17.3654  -1.8127  -0.9261   3.3385   4.5039   8.7447  10.9515

          k =-0.9991 0.1665 0.0000 (  6682 PWs)   bands (ev):

   -17.6294 -17.6294 -17.5530 -17.5530 -17.4901 -17.4901 -17.4525 -17.4525
   -17.3734 -17.3734  -1.4047  -1.4047   4.1623   4.1623   8.4526   8.4526

          k =-0.3330-0.6661 0.9991 (  6664 PWs)   bands (ev):

   -17.6301 -17.6275 -17.5705 -17.5312 -17.5063 -17.4926 -17.4524 -17.4371
   -17.3767 -17.3752  -3.0065   0.4910   3.8427   4.9417   9.7655   9.8362

          k =-0.2498-0.5828 0.9159 (  6656 PWs)   bands (ev):

   -17.6354 -17.6294 -17.5586 -17.5225 -17.5022 -17.4950 -17.4642 -17.4476
   -17.3745 -17.3690  -2.5171  -0.1543   3.5326   4.6713   9.7676  10.5388

          k =-0.1665-0.4996 0.8326 (  6672 PWs)   bands (ev):

   -17.6374 -17.6299 -17.5538 -17.5176 -17.5016 -17.4944 -17.4713 -17.4512
   -17.3738 -17.3667  -2.2528  -0.4774   3.4358   4.5676   9.7550  10.6314

          k =-0.1665-0.6661 0.9991 (  6673 PWs)   bands (ev):

   -17.6337 -17.6317 -17.5569 -17.5165 -17.5126 -17.4850 -17.4712 -17.4480
   -17.3720 -17.3701  -2.2379  -0.4489   3.6904   4.2459   9.6176   9.8635

          k =-0.0833-0.5828 0.9159 (  6678 PWs)   bands (ev):

   -17.6374 -17.6328 -17.5452 -17.5169 -17.5042 -17.4853 -17.4804 -17.4580
   -17.3706 -17.3663  -1.8358  -0.8764   3.4623   4.1155   9.8413  10.9924

          k = 0.0000-0.4996 0.8326 (  6674 PWs)   bands (ev):

   -17.6379 -17.6321 -17.5474 -17.5102 -17.5072 -17.4900 -17.4792 -17.4560
   -17.3714 -17.3659  -2.0320  -0.6656   3.3591   4.3009   9.9987  11.2322

          k =-0.9991 0.3330 0.0000 (  6672 PWs)   bands (ev):

   -17.6342 -17.6342 -17.5385 -17.5385 -17.4919 -17.4919 -17.4647 -17.4647
   -17.3691 -17.3691  -1.3706  -1.3706   3.8205   3.8205   9.6669   9.6669

          k =-0.9991 0.4996 0.0000 (  6652 PWs)   bands (ev):

   -17.6362 -17.6362 -17.5293 -17.5293 -17.4945 -17.4945 -17.4711 -17.4711
   -17.3673 -17.3673  -1.3530  -1.3530   3.6741   3.6741  10.9521  10.9521

     the Fermi energy is     6.9635 ev

!    total energy              =    -427.30145915 Ry
     estimated scf accuracy    <          7.1E-14 Ry
     smearing contrib. (-TS)   =      -0.00000746 Ry
     internal energy E=F+TS    =    -427.30145168 Ry

     The total energy is F=E-TS. E is the sum of the following terms:
     one-electron contribution =    -290.31141233 Ry
     hartree contribution      =     169.82069820 Ry
     xc contribution           =    -116.52099315 Ry
     ewald contribution        =    -190.28974441 Ry

     convergence has been achieved in   9 iterations

     Forces acting on atoms (cartesian axes, Ry/au):

     atom    1 type  1   force =     0.00000000    0.00000000    0.00000000
     atom    2 type  1   force =     0.00000000    0.00000000    0.00000000

     Total force =     0.000000     Total SCF correction =     0.000000


     Computing stress (Cartesian axis) and pressure

          total   stress  (Ry/bohr**3)                   (kbar)     P=      -30.47
  -0.00020710  -0.00000000   0.00000000          -30.47       -0.00        0.00
   0.00000000  -0.00020710   0.00000000            0.00      -30.47        0.00
   0.00000000   0.00000000  -0.00020710            0.00        0.00      -30.47

     Volume is kept fixed: isostatic pressure set to zero

     BFGS Geometry Optimization
     Energy error            =      2.0E-35 Ry
     Gradient error          =      0.0E+00 Ry/Bohr
     Cell gradient error     =      4.0E-15 kbar

     bfgs converged in   1 scf cycles and   0 bfgs steps
     (criteria: energy <  1.0E-04 Ry, force <  1.0E-03 Ry/Bohr, cell <  5.0E-01 kbar)

     End of BFGS Geometry Optimization

     Final enthalpy           =    -427.3014591492 Ry
Begin final coordinates
     new unit-cell volume =    341.62067 a.u.^3 (    50.62296 Ang^3 )
     density =      4.76483 g/cm^3

CELL_PARAMETERS (alat= 11.08740000)
   0.000000000   0.500428075   0.500428075
   0.500428075   0.000000000   0.500428075
   0.500428075   0.500428075   0.000000000

ATOMIC_POSITIONS (alat)
Ge               0.0000000000        0.0000000000        0.0000000000
Ge               0.2502140375        0.2502140375        0.2502140375
End final coordinates



     Writing config-only to output data dir ./Ge.save/ :
     XML data file

     Final scf calculation at the relaxed structure.
     The G-vectors are recalculated for the final unit cell
     Results may differ from those at the preceding step.
 
     Parallelization info
     --------------------
     sticks:   dense  smooth     PW     G-vecs:    dense   smooth      PW
     Min         469     469    133                13342    13342    2024
     Max         470     470    134                13345    13345    2025
     Sum        1879    1879    535                53377    53377    8099
 
     Using Slab Decomposition
 


     bravais-lattice index     =            0
     lattice parameter (alat)  =      11.0874  a.u.
     unit-cell volume          =     341.6207 (a.u.)^3
     number of atoms/cell      =            2
     number of atomic types    =            1
     number of electrons       =        28.00
     number of Kohn-Sham states=           16
     kinetic-energy cutoff     =     110.0000  Ry
     charge density cutoff     =     440.0000  Ry
     scf convergence threshold =      1.0E-12
     mixing beta               =       0.7000
     number of iterations used =            8  plain     mixing
     press convergence thresh. =      5.0E-01
     Exchange-correlation=  SLA  PW   PBX  PBC
                           (   1   4   3   4   0   0   0)

     celldm(1)=  11.087400  celldm(2)=   0.000000  celldm(3)=   0.000000
     celldm(4)=   0.000000  celldm(5)=   0.000000  celldm(6)=   0.000000

     crystal axes: (cart. coord. in units of alat)
               a(1) = (   0.000000   0.500428   0.500428 )  
               a(2) = (   0.500428   0.000000   0.500428 )  
               a(3) = (   0.500428   0.500428   0.000000 )  

     reciprocal axes: (cart. coord. in units 2 pi/alat)
               b(1) = ( -0.999145  0.999145  0.999145 )  
               b(2) = (  0.999145 -0.999145  0.999145 )  
               b(3) = (  0.999145  0.999145 -0.999145 )  


     PseudoPot. # 1 for Ge read from file:
     ./ge_pbe_v1.4.uspp.F.UPF
     MD5 check sum: 9c9eaa91e581c3f09632fb3098b2c6b2
     Pseudo is Ultrasoft + core correction, Zval = 14.0
     Generated by new atomic code, or converted to UPF format
     Using radial grid of  873 points,  6 beta functions with: 
                l(1) =   0
                l(2) =   0
                l(3) =   1
                l(4) =   1
                l(5) =   2
                l(6) =   2
     Q(r) pseudized with  8 coefficients,  rinner =    1.400   1.400   1.400
                                                       1.400   1.400

     atomic species   valence    mass     pseudopotential
     Ge               14.00    72.63000     Ge( 1.00)

     48 Sym. Ops., with inversion, found (24 have fractional translation)



   Cartesian axes

     site n.     atom                  positions (alat units)
         1        Ge     tau(   1) = (   0.0000000   0.0000000   0.0000000  )
         2        Ge     tau(   2) = (   0.2502140   0.2502140   0.2502140  )

     number of k points=    72  Gaussian smearing, width (Ry)=  0.0020
                       cart. coord. in units 2pi/alat
        k(    1) = (   0.0000000   0.0000000   0.0000000), wk =   0.0011574
        k(    2) = (   0.0832620   0.0832620  -0.0832620), wk =   0.0092593
        k(    3) = (   0.1665241   0.1665241  -0.1665241), wk =   0.0092593
        k(    4) = (   0.2497861   0.2497861  -0.2497861), wk =   0.0092593
        k(    5) = (   0.3330482   0.3330482  -0.3330482), wk =   0.0092593
        k(    6) = (   0.4163102   0.4163102  -0.4163102), wk =   0.0092593
        k(    7) = (  -0.4995723  -0.4995723   0.4995723), wk =   0.0046296
        k(    8) = (   0.1665241   0.0000000   0.0000000), wk =   0.0069444
        k(    9) = (   0.2497861   0.0832620  -0.0832620), wk =   0.0277778
        k(   10) = (   0.3330482   0.1665241  -0.1665241), wk =   0.0277778
        k(   11) = (   0.4163102   0.2497861  -0.2497861), wk =   0.0277778
        k(   12) = (   0.4995723   0.3330482  -0.3330482), wk =   0.0277778
        k(   13) = (  -0.4163102  -0.5828343   0.5828343), wk =   0.0277778
        k(   14) = (  -0.3330482  -0.4995723   0.4995723), wk =   0.0277778
        k(   15) = (  -0.2497861  -0.4163102   0.4163102), wk =   0.0277778
        k(   16) = (  -0.1665241  -0.3330482   0.3330482), wk =   0.0277778
        k(   17) = (  -0.0832620  -0.2497861   0.2497861), wk =   0.0277778
        k(   18) = (  -0.0000000  -0.1665241   0.1665241), wk =   0.0138889
        k(   19) = (   0.3330482   0.0000000   0.0000000), wk =   0.0069444
        k(   20) = (   0.4163102   0.0832620  -0.0832620), wk =   0.0277778
        k(   21) = (   0.4995723   0.1665241  -0.1665241), wk =   0.0277778
        k(   22) = (   0.5828343   0.2497861  -0.2497861), wk =   0.0277778
        k(   23) = (  -0.3330482  -0.6660964   0.6660964), wk =   0.0277778
        k(   24) = (  -0.2497861  -0.5828343   0.5828343), wk =   0.0277778
        k(   25) = (  -0.1665241  -0.4995723   0.4995723), wk =   0.0277778
        k(   26) = (  -0.0832620  -0.4163102   0.4163102), wk =   0.0277778
        k(   27) = (  -0.0000000  -0.3330482   0.3330482), wk =   0.0138889
        k(   28) = (   0.4995723   0.0000000   0.0000000), wk =   0.0069444
        k(   29) = (   0.5828343   0.0832620  -0.0832620), wk =   0.0277778
        k(   30) = (   0.6660964   0.1665241  -0.1665241), wk =   0.0277778
        k(   31) = (  -0.2497861  -0.7493584   0.7493584), wk =   0.0277778
        k(   32) = (  -0.1665241  -0.6660964   0.6660964), wk =   0.0277778
        k(   33) = (  -0.0832620  -0.5828343   0.5828343), wk =   0.0277778
        k(   34) = (   0.0000000  -0.4995723   0.4995723), wk =   0.0138889
        k(   35) = (   0.6660964   0.0000000   0.0000000), wk =   0.0069444
        k(   36) = (   0.7493584   0.0832620  -0.0832620), wk =   0.0277778
        k(   37) = (  -0.1665241  -0.8326205   0.8326205), wk =   0.0277778
        k(   38) = (  -0.0832620  -0.7493584   0.7493584), wk =   0.0277778
        k(   39) = (  -0.0000000  -0.6660964   0.6660964), wk =   0.0138889
        k(   40) = (   0.8326205   0.0000000   0.0000000), wk =   0.0069444
        k(   41) = (  -0.0832620  -0.9158825   0.9158825), wk =   0.0277778
        k(   42) = (  -0.0000000  -0.8326205   0.8326205), wk =   0.0138889
        k(   43) = (  -0.9991446   0.0000000   0.0000000), wk =   0.0034722
        k(   44) = (   0.3330482   0.1665241  -0.0000000), wk =   0.0277778
        k(   45) = (   0.4163102   0.2497861  -0.0832620), wk =   0.0555556
        k(   46) = (   0.4995723   0.3330482  -0.1665241), wk =   0.0555556
        k(   47) = (  -0.4163102  -0.5828343   0.7493584), wk =   0.0555556
        k(   48) = (  -0.3330482  -0.4995723   0.6660964), wk =   0.0277778
        k(   49) = (   0.4995723   0.1665241   0.0000000), wk =   0.0277778
        k(   50) = (   0.5828343   0.2497861  -0.0832620), wk =   0.0555556
        k(   51) = (  -0.3330482  -0.6660964   0.8326205), wk =   0.0555556
        k(   52) = (  -0.2497861  -0.5828343   0.7493584), wk =   0.0555556
        k(   53) = (  -0.1665241  -0.4995723   0.6660964), wk =   0.0555556
        k(   54) = (  -0.0832620  -0.4163102   0.5828343), wk =   0.0555556
        k(   55) = (  -0.0000000  -0.3330482   0.4995723), wk =   0.0277778
        k(   56) = (   0.6660964   0.1665241   0.0000000), wk =   0.0277778
        k(   57) = (  -0.2497861  -0.7493584   0.9158825), wk =   0.0555556
        k(   58) = (  -0.1665241  -0.6660964   0.8326205), wk =   0.0555556
        k(   59) = (  -0.0832620  -0.5828343   0.7493584), wk =   0.0555556
        k(   60) = (  -0.0000000  -0.4995723   0.6660964), wk =   0.0277778
        k(   61) = (  -0.1665241  -0.8326205   0.9991446), wk =   0.0277778
        k(   62) = (  -0.0832620  -0.7493584   0.9158825), wk =   0.0555556
        k(   63) = (  -0.0000000  -0.6660964   0.8326205), wk =   0.0277778
        k(   64) = (  -0.9991446   0.1665241   0.0000000), wk =   0.0138889
        k(   65) = (  -0.3330482  -0.6660964   0.9991446), wk =   0.0277778
        k(   66) = (  -0.2497861  -0.5828343   0.9158825), wk =   0.0555556
        k(   67) = (  -0.1665241  -0.4995723   0.8326205), wk =   0.0277778
        k(   68) = (  -0.1665241  -0.6660964   0.9991446), wk =   0.0277778
        k(   69) = (  -0.0832620  -0.5828343   0.9158825), wk =   0.0555556
        k(   70) = (   0.0000000  -0.4995723   0.8326205), wk =   0.0277778
        k(   71) = (  -0.9991446   0.3330482   0.0000000), wk =   0.0138889
        k(   72) = (  -0.9991446   0.4995723   0.0000000), wk =   0.0069444

     Dense  grid:    53377 G-vectors     FFT dimensions: (  60,  60,  60)

     Estimated max dynamical RAM per process >      84.23 MB

     Estimated total dynamical RAM >     336.90 MB

     Check: negative core charge=   -0.000002

     Initial potential from superposition of free atoms

     starting charge      27.9983, renormalised to      28.0000
     Starting wfcs are   18 randomized atomic wfcs

     total cpu time spent up to now is       54.9 secs

     Self-consistent Calculation

     iteration #  1     ecut=   110.00 Ry     beta= 0.70
     Davidson diagonalization with overlap
     ethr =  1.00E-06,  avg # of iterations =  9.7

     total cpu time spent up to now is       64.6 secs

     total energy              =    -427.30062456 Ry
     estimated scf accuracy    <       0.02856008 Ry

     iteration #  2     ecut=   110.00 Ry     beta= 0.70
     Davidson diagonalization with overlap
     ethr =  1.02E-04,  avg # of iterations =  1.0

     total cpu time spent up to now is       68.5 secs

     total energy              =    -427.30137088 Ry
     estimated scf accuracy    <       0.00167931 Ry

     iteration #  3     ecut=   110.00 Ry     beta= 0.70
     Davidson diagonalization with overlap
     ethr =  6.00E-06,  avg # of iterations =  2.0

     total cpu time spent up to now is       72.5 secs

     total energy              =    -427.30144938 Ry
     estimated scf accuracy    <       0.00002571 Ry

     iteration #  4     ecut=   110.00 Ry     beta= 0.70
     Davidson diagonalization with overlap
     ethr =  9.18E-08,  avg # of iterations =  2.4

     total cpu time spent up to now is       77.9 secs

     total energy              =    -427.30145868 Ry
     estimated scf accuracy    <       0.00000255 Ry

     iteration #  5     ecut=   110.00 Ry     beta= 0.70
     Davidson diagonalization with overlap
     ethr =  9.11E-09,  avg # of iterations =  2.0

     total cpu time spent up to now is       82.7 secs

     total energy              =    -427.30145912 Ry
     estimated scf accuracy    <       0.00000006 Ry

     iteration #  6     ecut=   110.00 Ry     beta= 0.70
     Davidson diagonalization with overlap
     ethr =  2.28E-10,  avg # of iterations =  2.6

     total cpu time spent up to now is       88.1 secs

     total energy              =    -427.30145915 Ry
     estimated scf accuracy    <          4.1E-09 Ry

     iteration #  7     ecut=   110.00 Ry     beta= 0.70
     Davidson diagonalization with overlap
     ethr =  1.47E-11,  avg # of iterations =  2.6

     total cpu time spent up to now is       93.2 secs

     total energy              =    -427.30145915 Ry
     estimated scf accuracy    <          7.3E-11 Ry

     iteration #  8     ecut=   110.00 Ry     beta= 0.70
     Davidson diagonalization with overlap
     ethr =  2.59E-13,  avg # of iterations =  3.4

     total cpu time spent up to now is       99.2 secs

     total energy              =    -427.30145915 Ry
     estimated scf accuracy    <          1.1E-11 Ry

     iteration #  9     ecut=   110.00 Ry     beta= 0.70
     Davidson diagonalization with overlap
     ethr =  1.00E-13,  avg # of iterations =  2.0

     total cpu time spent up to now is      103.5 secs

     End of self-consistent calculation

          k = 0.0000 0.0000 0.0000 (  6615 PWs)   bands (ev):

   -17.6005 -17.6005 -17.6005 -17.5729 -17.5729 -17.4149 -17.4149 -17.4149
   -17.4100 -17.4100  -4.8950   6.1317   7.0767   7.0767   7.0767   9.5726

          k = 0.0833 0.0833-0.0833 (  6651 PWs)   bands (ev):

   -17.6036 -17.6036 -17.5996 -17.5687 -17.5687 -17.4216 -17.4216 -17.4159
   -17.4039 -17.4039  -4.8188   5.1848   6.9345   6.9345   7.5607   9.7660

          k = 0.1665 0.1665-0.1665 (  6645 PWs)   bands (ev):

   -17.6092 -17.6092 -17.5972 -17.5603 -17.5603 -17.4300 -17.4300 -17.4186
   -17.3971 -17.3971  -4.5936   3.8041   6.6251   6.6251   7.6281  10.1846

          k = 0.2498 0.2498-0.2498 (  6627 PWs)   bands (ev):

   -17.6140 -17.6140 -17.5938 -17.5520 -17.5520 -17.4370 -17.4370 -17.4225
   -17.3920 -17.3920  -4.2319   2.4531   6.3050   6.3050   7.3976  10.5563

          k = 0.3330 0.3330-0.3330 (  6634 PWs)   bands (ev):

   -17.6171 -17.6171 -17.5903 -17.5460 -17.5460 -17.4417 -17.4417 -17.4264
   -17.3886 -17.3886  -3.7675   1.2488   6.0498   6.0498   7.1594  10.7292

          k = 0.4163 0.4163-0.4163 (  6646 PWs)   bands (ev):

   -17.6187 -17.6187 -17.5877 -17.5427 -17.5427 -17.4440 -17.4440 -17.4293
   -17.3868 -17.3868  -3.2961   0.3226   5.8893   5.8893   7.0006  10.7543

          k =-0.4996-0.4996 0.4996 (  6658 PWs)   bands (ev):

   -17.6191 -17.6191 -17.5867 -17.5417 -17.5417 -17.4447 -17.4447 -17.4304
   -17.3862 -17.3862  -3.0650  -0.0617   5.8348   5.8348   6.9458  10.7473

          k = 0.1665 0.0000 0.0000 (  6643 PWs)   bands (ev):

   -17.6036 -17.6026 -17.6026 -17.5700 -17.5644 -17.4307 -17.4126 -17.4120
   -17.4120 -17.4006  -4.7932   5.0722   6.6803   6.6803   8.0949   9.2706

          k = 0.2498 0.0833-0.0833 (  6637 PWs)   bands (ev):

   -17.6096 -17.6064 -17.6003 -17.5643 -17.5555 -17.4406 -17.4212 -17.4121
   -17.4039 -17.3954  -4.6170   4.0527   6.3313   6.3611   8.4265   9.3201

          k = 0.3330 0.1665-0.1665 (  6633 PWs)   bands (ev):

   -17.6158 -17.6113 -17.5955 -17.5563 -17.5464 -17.4488 -17.4293 -17.4166
   -17.3971 -17.3895  -4.2987   2.7954   5.9727   6.0157   8.2728   9.8151

          k = 0.4163 0.2498-0.2498 (  6641 PWs)   bands (ev):

   -17.6205 -17.6153 -17.5898 -17.5490 -17.5398 -17.4536 -17.4363 -17.4229
   -17.3918 -17.3848  -3.8625   1.5845   5.5988   5.7914   8.0239  10.2653

          k = 0.4996 0.3330-0.3330 (  6634 PWs)   bands (ev):

   -17.6232 -17.6181 -17.5845 -17.5432 -17.5371 -17.4539 -17.4421 -17.4294
   -17.3879 -17.3820  -3.3746   0.5703   5.3070   5.6807   7.8223  10.4832

          k =-0.4163-0.5828 0.5828 (  6643 PWs)   bands (ev):

   -17.6240 -17.6199 -17.5811 -17.5391 -17.5382 -17.4502 -17.4467 -17.4344
   -17.3853 -17.3813  -3.0240  -0.0244   5.1245   5.6895   7.7105  10.5964

          k =-0.3330-0.4996 0.4996 (  6652 PWs)   bands (ev):

   -17.6231 -17.6208 -17.5810 -17.5414 -17.5371 -17.4499 -17.4448 -17.4359
   -17.3840 -17.3828  -3.1067   0.1082   5.0647   5.8138   7.7017  10.7171

          k =-0.2498-0.4163 0.4163 (  6649 PWs)   bands (ev):

   -17.6205 -17.6204 -17.5841 -17.5459 -17.5380 -17.4505 -17.4415 -17.4308
   -17.3864 -17.3842  -3.5368   0.8794   5.1371   6.0411   7.7933  10.7760

          k =-0.1665-0.3330 0.3330 (  6651 PWs)   bands (ev):

   -17.6185 -17.6160 -17.5895 -17.5515 -17.5429 -17.4473 -17.4382 -17.4225
   -17.3921 -17.3862  -4.0197   1.9740   5.3509   6.3467   7.9621  10.5303

          k =-0.0833-0.2498 0.2498 (  6632 PWs)   bands (ev):

   -17.6144 -17.6103 -17.5952 -17.5584 -17.5513 -17.4405 -17.4330 -17.4145
   -17.3997 -17.3903  -4.4206   3.2037   5.7208   6.6793   8.1238  10.1489

          k =-0.0000-0.1665 0.1665 (  6639 PWs)   bands (ev):

   -17.6089 -17.6047 -17.5993 -17.5654 -17.5610 -17.4314 -17.4261 -17.4090
   -17.4078 -17.3963  -4.6927   4.3852   6.2792   6.9290   8.0142   9.8037

          k = 0.3330 0.0000 0.0000 (  6639 PWs)   bands (ev):

   -17.6079 -17.6079 -17.6062 -17.5615 -17.5457 -17.4537 -17.4205 -17.4043
   -17.4043 -17.3962  -4.4896   3.6755   5.9631   5.9631   8.6918   9.2029

          k = 0.4163 0.0833-0.0833 (  6638 PWs)   bands (ev):

   -17.6153 -17.6118 -17.6006 -17.5545 -17.5352 -17.4650 -17.4278 -17.4068
   -17.3982 -17.3909  -4.2169   2.7896   5.5388   5.6391   8.6922   9.4004

          k = 0.4996 0.1665-0.1665 (  6653 PWs)   bands (ev):

   -17.6226 -17.6158 -17.5917 -17.5464 -17.5269 -17.4725 -17.4363 -17.4160
   -17.3920 -17.3831  -3.8156   1.7434   5.0346   5.4157   8.7306   9.8026

          k = 0.5828 0.2498-0.2498 (  6648 PWs)   bands (ev):

   -17.6281 -17.6192 -17.5821 -17.5388 -17.5236 -17.4742 -17.4446 -17.4266
   -17.3868 -17.3771  -3.3308   0.7548   4.5910   5.3164   8.5886  10.3774

          k =-0.3330-0.6661 0.6661 (  6649 PWs)   bands (ev):

   -17.6312 -17.6218 -17.5740 -17.5322 -17.5260 -17.4695 -17.4522 -17.4359
   -17.3830 -17.3738  -2.8972   0.0356   4.2729   5.3481   8.4811  10.6532

          k =-0.2498-0.5828 0.5828 (  6664 PWs)   bands (ev):

   -17.6314 -17.6235 -17.5699 -17.5326 -17.5276 -17.4596 -17.4584 -17.4420
   -17.3807 -17.3738  -2.8209  -0.0774   4.1072   5.5059   8.4627  10.8034

          k =-0.1665-0.4996 0.4996 (  6636 PWs)   bands (ev):

   -17.6288 -17.6239 -17.5714 -17.5407 -17.5268 -17.4609 -17.4466 -17.4441
   -17.3801 -17.3774  -3.1834   0.4961   4.1179   5.7732   8.5274  10.9709

          k =-0.0833-0.4163 0.4163 (  6646 PWs)   bands (ev):

   -17.6235 -17.6226 -17.5786 -17.5475 -17.5315 -17.4581 -17.4430 -17.4323
   -17.3842 -17.3815  -3.6730   1.4060   4.3445   6.1152   8.6220  10.9566

          k =-0.0000-0.3330 0.3330 (  6643 PWs)   bands (ev):

   -17.6193 -17.6165 -17.5880 -17.5533 -17.5406 -17.4505 -17.4390 -17.4197
   -17.3933 -17.3849  -4.1062   2.3735   4.8594   6.4614   8.5785  10.4890

          k = 0.4996 0.0000 0.0000 (  6643 PWs)   bands (ev):

   -17.6146 -17.6146 -17.6036 -17.5481 -17.5224 -17.4800 -17.4330 -17.3992
   -17.3944 -17.3944  -3.9891   2.2991   5.2990   5.2990   8.1792   9.5011

          k = 0.5828 0.0833-0.0833 (  6655 PWs)   bands (ev):

   -17.6212 -17.6181 -17.5956 -17.5397 -17.5114 -17.4917 -17.4413 -17.4091
   -17.3891 -17.3851  -3.6263   1.5259   4.8585   5.0582   8.2687   9.4291

          k = 0.6661 0.1665-0.1665 (  6659 PWs)   bands (ev):

   -17.6288 -17.6212 -17.5831 -17.5309 -17.5058 -17.4966 -17.4507 -17.4226
   -17.3841 -17.3763  -3.1585   0.6894   4.2818   4.9444   8.4532   9.9035

          k =-0.2498-0.7494 0.7494 (  6661 PWs)   bands (ev):

   -17.6345 -17.6238 -17.5711 -17.5226 -17.5075 -17.4933 -17.4601 -17.4355
   -17.3803 -17.3700  -2.6764  -0.0308   3.7915   4.9674   8.4754  10.9101

          k =-0.1665-0.6661 0.6661 (  6670 PWs)   bands (ev):

   -17.6371 -17.6256 -17.5634 -17.5160 -17.5146 -17.4844 -17.4682 -17.4436
   -17.3780 -17.3674  -2.4538  -0.3238   3.4883   5.1240   8.5398  11.5942

          k =-0.0833-0.5828 0.5828 (  6663 PWs)   bands (ev):

   -17.6359 -17.6262 -17.5618 -17.5276 -17.5146 -17.4716 -17.4688 -17.4462
   -17.3773 -17.3691  -2.7335   0.0483   3.4308   5.3982   8.6769  11.7668

          k = 0.0000-0.4996 0.4996 (  6647 PWs)   bands (ev):

   -17.6311 -17.6252 -17.5672 -17.5401 -17.5208 -17.4673 -17.4509 -17.4446
   -17.3784 -17.3751  -3.2189   0.7322   3.6916   5.7535   8.7944  11.6032

          k = 0.6661 0.0000 0.0000 (  6658 PWs)   bands (ev):

   -17.6208 -17.6208 -17.5949 -17.5308 -17.5079 -17.4969 -17.4494 -17.4092
   -17.3849 -17.3849  -3.3007   0.9748   4.7920   4.7920   7.8585   8.9927

          k = 0.7494 0.0833-0.0833 (  6658 PWs)   bands (ev):

   -17.6262 -17.6234 -17.5843 -17.5212 -17.5188 -17.4861 -17.4590 -17.4207
   -17.3810 -17.3782  -2.8578   0.2966   4.3875   4.6511   8.0281   8.9099

          k =-0.1665-0.8326 0.8326 (  6667 PWs)   bands (ev):

   -17.6332 -17.6254 -17.5699 -17.5220 -17.5117 -17.4820 -17.4693 -17.4357
   -17.3780 -17.3707  -2.3544  -0.3527   3.8076   4.6487   8.1972   9.6407

          k =-0.0833-0.7494 0.7494 (  6665 PWs)   bands (ev):

   -17.6381 -17.6267 -17.5604 -17.5129 -17.5038 -17.4895 -17.4785 -17.4454
   -17.3762 -17.3657  -2.0208  -0.7263   3.3515   4.7847   8.3063  10.9319

          k =-0.0000-0.6661 0.6661 (  6663 PWs)   bands (ev):

   -17.6392 -17.6271 -17.5586 -17.5079 -17.5044 -17.4925 -17.4798 -17.4473
   -17.3759 -17.3650  -2.2559  -0.4605   3.1874   5.0455   8.4934  12.3274

          k = 0.8326 0.0000 0.0000 (  6662 PWs)   bands (ev):

   -17.6251 -17.6251 -17.5800 -17.5350 -17.5109 -17.4710 -17.4687 -17.4255
   -17.3783 -17.3783  -2.4384  -0.2743   4.4780   4.4780   7.7761   8.3784

          k =-0.0833-0.9159 0.9159 (  6660 PWs)   bands (ev):

   -17.6291 -17.6263 -17.5672 -17.5441 -17.5005 -17.4792 -17.4617 -17.4385
   -17.3764 -17.3739  -1.9314  -0.8648   4.1481   4.4427   7.9825   8.4828

          k =-0.0000-0.8326 0.8326 (  6673 PWs)   bands (ev):

   -17.6348 -17.6269 -17.5589 -17.5366 -17.4935 -17.4872 -17.4677 -17.4470
   -17.3757 -17.3686  -1.6068  -1.1807   3.6469   4.5483   8.1051   9.5155

          k =-0.9991 0.0000 0.0000 (  6710 PWs)   bands (ev):

   -17.6266 -17.6266 -17.5596 -17.5596 -17.4897 -17.4897 -17.4467 -17.4467
   -17.3759 -17.3759  -1.4213  -1.4213   4.3719   4.3719   7.9509   7.9509

          k = 0.3330 0.1665-0.0000 (  6642 PWs)   bands (ev):

   -17.6144 -17.6103 -17.5977 -17.5588 -17.5457 -17.4513 -17.4270 -17.4105
   -17.4012 -17.3905  -4.3930   3.2362   5.5633   6.2933   8.8327   9.2818

          k = 0.4163 0.2498-0.0833 (  6644 PWs)   bands (ev):

   -17.6198 -17.6160 -17.5904 -17.5516 -17.5364 -17.4597 -17.4341 -17.4187
   -17.3929 -17.3852  -4.0328   2.1891   4.9990   6.0392   8.7893   9.7841

          k = 0.4996 0.3330-0.1665 (  6652 PWs)   bands (ev):

   -17.6248 -17.6200 -17.5820 -17.5448 -17.5302 -17.4639 -17.4404 -17.4292
   -17.3864 -17.3806  -3.5687   1.1321   4.6474   5.7524   8.6059  10.2881

          k =-0.4163-0.5828 0.7494 (  6649 PWs)   bands (ev):

   -17.6283 -17.6220 -17.5753 -17.5386 -17.5289 -17.4627 -17.4469 -17.4376
   -17.3830 -17.3771  -3.0932   0.2689   4.4578   5.5460   8.4672  10.4645

          k =-0.3330-0.4996 0.6661 (  6656 PWs)   bands (ev):

   -17.6295 -17.6226 -17.5728 -17.5347 -17.5306 -17.4590 -17.4527 -17.4401
   -17.3820 -17.3757  -2.8566  -0.1014   4.3982   5.4720   8.4177  10.4860

          k = 0.4996 0.1665 0.0000 (  6651 PWs)   bands (ev):

   -17.6193 -17.6173 -17.5947 -17.5473 -17.5243 -17.4765 -17.4349 -17.4119
   -17.3912 -17.3864  -3.9002   2.0360   4.9172   5.4837   8.7786   9.5028

          k = 0.5828 0.2498-0.0833 (  6659 PWs)   bands (ev):

   -17.6259 -17.6215 -17.5838 -17.5393 -17.5161 -17.4839 -17.4433 -17.4235
   -17.3847 -17.3795  -3.4647   1.1587   4.3873   5.2427   8.9866   9.8707

          k =-0.3330-0.6661 0.8326 (  6653 PWs)   bands (ev):

   -17.6318 -17.6240 -17.5726 -17.5315 -17.5135 -17.4847 -17.4523 -17.4354
   -17.3808 -17.3731  -2.9719   0.3292   4.0012   5.0738   8.9493  10.5350

          k =-0.2498-0.5828 0.7494 (  6653 PWs)   bands (ev):

   -17.6349 -17.6255 -17.5650 -17.5256 -17.5163 -17.4793 -17.4608 -17.4431
   -17.3785 -17.3698  -2.6114  -0.1933   3.7619   5.0590   8.9414  10.7129

          k =-0.1665-0.4996 0.6661 (  6660 PWs)   bands (ev):

   -17.6345 -17.6261 -17.5636 -17.5291 -17.5168 -17.4750 -17.4602 -17.4454
   -17.3778 -17.3704  -2.7103  -0.0547   3.6903   5.2023   9.0110  10.7114

          k =-0.0833-0.4163 0.5828 (  6650 PWs)   bands (ev):

   -17.6306 -17.6254 -17.5691 -17.5380 -17.5186 -17.4744 -17.4474 -17.4430
   -17.3787 -17.3752  -3.1563   0.6145   3.8297   5.4715   9.1267  10.5966

          k =-0.0000-0.3330 0.4996 (  6664 PWs)   bands (ev):

   -17.6239 -17.6233 -17.5797 -17.5455 -17.5260 -17.4689 -17.4402 -17.4304
   -17.3836 -17.3810  -3.6383   1.4347   4.2480   5.7976   9.1594  10.0932

          k = 0.6661 0.1665 0.0000 (  6647 PWs)   bands (ev):

   -17.6241 -17.6237 -17.5866 -17.5309 -17.5032 -17.5003 -17.4501 -17.4185
   -17.3819 -17.3809  -3.2252   0.8421   4.4468   4.8215   8.4437   9.3063

          k =-0.2498-0.7494 0.9159 (  6662 PWs)   bands (ev):

   -17.6313 -17.6262 -17.5727 -17.5218 -17.5092 -17.4933 -17.4600 -17.4329
   -17.3780 -17.3731  -2.7358   0.1304   3.9500   4.6432   8.7353   9.8046

          k =-0.1665-0.6661 0.8326 (  6664 PWs)   bands (ev):

   -17.6366 -17.6277 -17.5608 -17.5142 -17.5067 -17.4937 -17.4700 -17.4448
   -17.3758 -17.3674  -2.2885  -0.4329   3.5195   4.6450   8.8225  10.9535

          k =-0.0833-0.5828 0.7494 (  6664 PWs)   bands (ev):

   -17.6384 -17.6284 -17.5563 -17.5133 -17.5024 -17.4937 -17.4754 -17.4491
   -17.3750 -17.3658  -2.2543  -0.4689   3.2964   4.8132   8.9626  11.6645

          k =-0.0000-0.4996 0.6661 (  6646 PWs)   bands (ev):

   -17.6362 -17.6278 -17.5593 -17.5262 -17.5080 -17.4840 -17.4650 -17.4478
   -17.3758 -17.3686  -2.6697   0.0263   3.3755   5.1111   9.1403  11.4074

          k =-0.1665-0.8326 0.9991 (  6660 PWs)   bands (ev):

   -17.6280 -17.6279 -17.5725 -17.5293 -17.5112 -17.4757 -17.4692 -17.4328
   -17.3756 -17.3756  -2.3851  -0.3166   4.1893   4.3739   8.3280   8.8099

          k =-0.0833-0.7494 0.9159 (  6663 PWs)   bands (ev):

   -17.6342 -17.6290 -17.5577 -17.5313 -17.5016 -17.4800 -17.4725 -17.4474
   -17.3740 -17.3692  -1.8854  -0.8687   3.7202   4.3322   8.5865   9.5875

          k =-0.0000-0.6661 0.8326 (  6665 PWs)   bands (ev):

   -17.6383 -17.6292 -17.5534 -17.5167 -17.4989 -17.4851 -17.4848 -17.4514
   -17.3738 -17.3654  -1.8127  -0.9261   3.3385   4.5039   8.7447  10.9515

          k =-0.9991 0.1665 0.0000 (  6682 PWs)   bands (ev):

   -17.6294 -17.6294 -17.5530 -17.5530 -17.4901 -17.4901 -17.4525 -17.4525
   -17.3734 -17.3734  -1.4047  -1.4047   4.1623   4.1623   8.4526   8.4526

          k =-0.3330-0.6661 0.9991 (  6664 PWs)   bands (ev):

   -17.6301 -17.6275 -17.5705 -17.5312 -17.5063 -17.4926 -17.4524 -17.4371
   -17.3767 -17.3752  -3.0065   0.4910   3.8427   4.9417   9.7655   9.8362

          k =-0.2498-0.5828 0.9159 (  6656 PWs)   bands (ev):

   -17.6354 -17.6294 -17.5586 -17.5225 -17.5022 -17.4950 -17.4642 -17.4476
   -17.3745 -17.3690  -2.5171  -0.1543   3.5326   4.6713   9.7676  10.5388

          k =-0.1665-0.4996 0.8326 (  6672 PWs)   bands (ev):

   -17.6374 -17.6299 -17.5539 -17.5176 -17.5016 -17.4944 -17.4713 -17.4512
   -17.3738 -17.3667  -2.2528  -0.4774   3.4358   4.5676   9.7550  10.6314

          k =-0.1665-0.6661 0.9991 (  6673 PWs)   bands (ev):

   -17.6337 -17.6317 -17.5569 -17.5165 -17.5126 -17.4850 -17.4712 -17.4480
   -17.3720 -17.3701  -2.2379  -0.4489   3.6904   4.2459   9.6176   9.8635

          k =-0.0833-0.5828 0.9159 (  6678 PWs)   bands (ev):

   -17.6374 -17.6328 -17.5452 -17.5169 -17.5042 -17.4853 -17.4804 -17.4580
   -17.3706 -17.3663  -1.8358  -0.8764   3.4623   4.1155   9.8413  10.9924

          k = 0.0000-0.4996 0.8326 (  6674 PWs)   bands (ev):

   -17.6380 -17.6321 -17.5474 -17.5102 -17.5072 -17.4900 -17.4792 -17.4560
   -17.3714 -17.3659  -2.0320  -0.6656   3.3591   4.3009   9.9987  11.2322

          k =-0.9991 0.3330 0.0000 (  6672 PWs)   bands (ev):

   -17.6342 -17.6342 -17.5385 -17.5385 -17.4919 -17.4919 -17.4647 -17.4647
   -17.3691 -17.3691  -1.3706  -1.3706   3.8205   3.8205   9.6669   9.6669

          k =-0.9991 0.4996 0.0000 (  6652 PWs)   bands (ev):

   -17.6362 -17.6362 -17.5293 -17.5293 -17.4945 -17.4945 -17.4711 -17.4711
   -17.3673 -17.3673  -1.3530  -1.3530   3.6741   3.6741  10.9521  10.9521

     the Fermi energy is     6.9635 ev

!    total energy              =    -427.30145915 Ry
     estimated scf accuracy    <          4.6E-14 Ry
     smearing contrib. (-TS)   =      -0.00000746 Ry
     internal energy E=F+TS    =    -427.30145168 Ry

     The total energy is F=E-TS. E is the sum of the following terms:
     one-electron contribution =    -290.31141452 Ry
     hartree contribution      =     169.82070084 Ry
     xc contribution           =    -116.52099359 Ry
     ewald contribution        =    -190.28974441 Ry

     convergence has been achieved in   9 iterations

     Forces acting on atoms (cartesian axes, Ry/au):

     atom    1 type  1   force =     0.00000000    0.00000000    0.00000000
     atom    2 type  1   force =     0.00000000    0.00000000    0.00000000

     Total force =     0.000000     Total SCF correction =     0.000000


     Computing stress (Cartesian axis) and pressure

          total   stress  (Ry/bohr**3)                   (kbar)     P=      -30.46
  -0.00020708   0.00000000   0.00000000          -30.46        0.00        0.00
  -0.00000000  -0.00020708   0.00000000           -0.00      -30.46        0.00
   0.00000000   0.00000000  -0.00020708            0.00        0.00      -30.46


     Writing all to output data dir ./Ge.save/ :
     XML data file, charge density, pseudopotentials, collected wavefunctions
 
     init_run     :      3.63s CPU      3.69s WALL (       2 calls)
     electrons    :     96.93s CPU     97.87s WALL (       2 calls)
     forces       :      0.77s CPU      0.79s WALL (       2 calls)
     stress       :      2.84s CPU      2.89s WALL (       2 calls)

     Called by init_run:
     wfcinit      :      3.22s CPU      3.26s WALL (       2 calls)
     potinit      :      0.03s CPU      0.04s WALL (       2 calls)
     hinit0       :      0.18s CPU      0.18s WALL (       2 calls)

     Called by electrons:
     c_bands      :     83.82s CPU     84.51s WALL (      19 calls)
     sum_band     :     12.30s CPU     12.45s WALL (      19 calls)
     v_of_rho     :      0.27s CPU      0.27s WALL (      20 calls)
     newd         :      0.59s CPU      0.68s WALL (      20 calls)
     mix_rho      :      0.03s CPU      0.03s WALL (      19 calls)

     Called by c_bands:
     init_us_2    :      0.84s CPU      0.87s WALL (    3168 calls)
     cegterg      :     79.87s CPU     80.32s WALL (    1368 calls)

     Called by *egterg:
     cdiaghg      :      0.99s CPU      1.00s WALL (    5109 calls)
     h_psi        :     64.50s CPU     64.89s WALL (    5325 calls)
     s_psi        :      3.71s CPU      3.74s WALL (    5325 calls)
     g_psi        :      0.10s CPU      0.10s WALL (    3813 calls)

     Called by h_psi:
     h_psi:calbec :      4.58s CPU      4.60s WALL (    5325 calls)
     vloc_psi     :     55.99s CPU     56.34s WALL (    5325 calls)
                                        0.00s GPU  (    5325 calls)
     add_vuspsi   :      3.78s CPU      3.79s WALL (    5325 calls)

     General routines
     calbec       :      8.54s CPU      8.58s WALL (    9141 calls)
     fft          :      0.24s CPU      0.25s WALL (     271 calls)
     ffts         :      0.01s CPU      0.01s WALL (      19 calls)
     fftw         :     60.55s CPU     60.92s WALL (  149306 calls)
 
     Parallel routines
 
     PWSCF        :   1m44.28s CPU   1m45.82s WALL

 
   This run was terminated on:  13:50:24   4Mar2026            

=------------------------------------------------------------------------------=
   JOB DONE.
=------------------------------------------------------------------------------=
