
     Program PWSCF v.7.5 starts on  4Mar2026 at 13:48:33 

     This program is part of the open-source Quantum ESPRESSO suite
     for quantum simulation of materials; please cite
         "P. Giannozzi et al., J. Phys.:Condens. Matter 21 395502 (2009);
         "P. Giannozzi et al., J. Phys.:Condens. Matter 29 465901 (2017);
         "P. Giannozzi et al., J. Chem. Phys. 152 154105 (2020);
          URL http://www.quantum-espresso.org", 
     in publications or presentations arising from this work. More details at
     http://www.quantum-espresso.org/quote

     Parallel version (MPI), running on     4 processors

     MPI processes distributed on     1 nodes
     494454 MiB available memory on the printing compute node when the environment starts
 
     Waiting for input...
     Reading input from standard input

     Current dimensions of program PWSCF are:
     Max number of different atomic species (ntypx) = 10
     Max number of k-points (npk) =  40000
     Max angular momentum in pseudopotentials (lmaxx) =  4
     Message from routine setup:
     using ibrav=0 with symmetry is DISCOURAGED, use correct ibrav instead
 
     R & G space division:  proc/nbgrp/npool/nimage =       4
     Subspace diagonalization in iterative solution of the eigenvalue problem:
     a serial algorithm will be used

 
     Parallelization info
     --------------------
     sticks:   dense  smooth     PW     G-vecs:    dense   smooth      PW
     Min         453     453    128                12872    12872    1955
     Max         454     454    130                12876    12876    1956
     Sum        1813    1813    517                51493    51493    7823
 
     Using Slab Decomposition
 


     bravais-lattice index     =            0
     lattice parameter (alat)  =      10.9787  a.u.
     unit-cell volume          =     331.6712 (a.u.)^3
     number of atoms/cell      =            2
     number of atomic types    =            1
     number of electrons       =        28.00
     number of Kohn-Sham states=           16
     kinetic-energy cutoff     =     110.0000  Ry
     charge density cutoff     =     440.0000  Ry
     scf convergence threshold =      1.0E-12
     mixing beta               =       0.7000
     number of iterations used =            8  plain     mixing
     energy convergence thresh.=      1.0E-04
     force convergence thresh. =      1.0E-03
     press convergence thresh. =      5.0E-01
     Exchange-correlation=  SLA  PW   PBX  PBC
                           (   1   4   3   4   0   0   0)
     nstep                     =           50


     celldm(1)=  10.978700  celldm(2)=   0.000000  celldm(3)=   0.000000
     celldm(4)=   0.000000  celldm(5)=   0.000000  celldm(6)=   0.000000

     crystal axes: (cart. coord. in units of alat)
               a(1) = (   0.000000   0.500428   0.500428 )  
               a(2) = (   0.500428   0.000000   0.500428 )  
               a(3) = (   0.500428   0.500428   0.000000 )  

     reciprocal axes: (cart. coord. in units 2 pi/alat)
               b(1) = ( -0.999145  0.999145  0.999145 )  
               b(2) = (  0.999145 -0.999145  0.999145 )  
               b(3) = (  0.999145  0.999145 -0.999145 )  


     PseudoPot. # 1 for Ge read from file:
     ./ge_pbe_v1.4.uspp.F.UPF
     MD5 check sum: 9c9eaa91e581c3f09632fb3098b2c6b2
     Pseudo is Ultrasoft + core correction, Zval = 14.0
     Generated by new atomic code, or converted to UPF format
     Using radial grid of  873 points,  6 beta functions with: 
                l(1) =   0
                l(2) =   0
                l(3) =   1
                l(4) =   1
                l(5) =   2
                l(6) =   2
     Q(r) pseudized with  8 coefficients,  rinner =    1.400   1.400   1.400
                                                       1.400   1.400

     atomic species   valence    mass     pseudopotential
     Ge               14.00    72.63000     Ge( 1.00)

     48 Sym. Ops., with inversion, found (24 have fractional translation)



   Cartesian axes

     site n.     atom                  positions (alat units)
         1        Ge     tau(   1) = (   0.0000000   0.0000000   0.0000000  )
         2        Ge     tau(   2) = (   0.2502140   0.2502140   0.2502140  )

     number of k points=    72  Gaussian smearing, width (Ry)=  0.0020
                       cart. coord. in units 2pi/alat
        k(    1) = (   0.0000000   0.0000000   0.0000000), wk =   0.0011574
        k(    2) = (   0.0832620   0.0832620  -0.0832620), wk =   0.0092593
        k(    3) = (   0.1665241   0.1665241  -0.1665241), wk =   0.0092593
        k(    4) = (   0.2497861   0.2497861  -0.2497861), wk =   0.0092593
        k(    5) = (   0.3330482   0.3330482  -0.3330482), wk =   0.0092593
        k(    6) = (   0.4163102   0.4163102  -0.4163102), wk =   0.0092593
        k(    7) = (  -0.4995723  -0.4995723   0.4995723), wk =   0.0046296
        k(    8) = (   0.1665241   0.0000000   0.0000000), wk =   0.0069444
        k(    9) = (   0.2497861   0.0832620  -0.0832620), wk =   0.0277778
        k(   10) = (   0.3330482   0.1665241  -0.1665241), wk =   0.0277778
        k(   11) = (   0.4163102   0.2497861  -0.2497861), wk =   0.0277778
        k(   12) = (   0.4995723   0.3330482  -0.3330482), wk =   0.0277778
        k(   13) = (  -0.4163102  -0.5828343   0.5828343), wk =   0.0277778
        k(   14) = (  -0.3330482  -0.4995723   0.4995723), wk =   0.0277778
        k(   15) = (  -0.2497861  -0.4163102   0.4163102), wk =   0.0277778
        k(   16) = (  -0.1665241  -0.3330482   0.3330482), wk =   0.0277778
        k(   17) = (  -0.0832620  -0.2497861   0.2497861), wk =   0.0277778
        k(   18) = (  -0.0000000  -0.1665241   0.1665241), wk =   0.0138889
        k(   19) = (   0.3330482   0.0000000   0.0000000), wk =   0.0069444
        k(   20) = (   0.4163102   0.0832620  -0.0832620), wk =   0.0277778
        k(   21) = (   0.4995723   0.1665241  -0.1665241), wk =   0.0277778
        k(   22) = (   0.5828343   0.2497861  -0.2497861), wk =   0.0277778
        k(   23) = (  -0.3330482  -0.6660964   0.6660964), wk =   0.0277778
        k(   24) = (  -0.2497861  -0.5828343   0.5828343), wk =   0.0277778
        k(   25) = (  -0.1665241  -0.4995723   0.4995723), wk =   0.0277778
        k(   26) = (  -0.0832620  -0.4163102   0.4163102), wk =   0.0277778
        k(   27) = (  -0.0000000  -0.3330482   0.3330482), wk =   0.0138889
        k(   28) = (   0.4995723   0.0000000   0.0000000), wk =   0.0069444
        k(   29) = (   0.5828343   0.0832620  -0.0832620), wk =   0.0277778
        k(   30) = (   0.6660964   0.1665241  -0.1665241), wk =   0.0277778
        k(   31) = (  -0.2497861  -0.7493584   0.7493584), wk =   0.0277778
        k(   32) = (  -0.1665241  -0.6660964   0.6660964), wk =   0.0277778
        k(   33) = (  -0.0832620  -0.5828343   0.5828343), wk =   0.0277778
        k(   34) = (   0.0000000  -0.4995723   0.4995723), wk =   0.0138889
        k(   35) = (   0.6660964   0.0000000   0.0000000), wk =   0.0069444
        k(   36) = (   0.7493584   0.0832620  -0.0832620), wk =   0.0277778
        k(   37) = (  -0.1665241  -0.8326205   0.8326205), wk =   0.0277778
        k(   38) = (  -0.0832620  -0.7493584   0.7493584), wk =   0.0277778
        k(   39) = (  -0.0000000  -0.6660964   0.6660964), wk =   0.0138889
        k(   40) = (   0.8326205   0.0000000   0.0000000), wk =   0.0069444
        k(   41) = (  -0.0832620  -0.9158825   0.9158825), wk =   0.0277778
        k(   42) = (  -0.0000000  -0.8326205   0.8326205), wk =   0.0138889
        k(   43) = (  -0.9991446   0.0000000   0.0000000), wk =   0.0034722
        k(   44) = (   0.3330482   0.1665241  -0.0000000), wk =   0.0277778
        k(   45) = (   0.4163102   0.2497861  -0.0832620), wk =   0.0555556
        k(   46) = (   0.4995723   0.3330482  -0.1665241), wk =   0.0555556
        k(   47) = (  -0.4163102  -0.5828343   0.7493584), wk =   0.0555556
        k(   48) = (  -0.3330482  -0.4995723   0.6660964), wk =   0.0277778
        k(   49) = (   0.4995723   0.1665241   0.0000000), wk =   0.0277778
        k(   50) = (   0.5828343   0.2497861  -0.0832620), wk =   0.0555556
        k(   51) = (  -0.3330482  -0.6660964   0.8326205), wk =   0.0555556
        k(   52) = (  -0.2497861  -0.5828343   0.7493584), wk =   0.0555556
        k(   53) = (  -0.1665241  -0.4995723   0.6660964), wk =   0.0555556
        k(   54) = (  -0.0832620  -0.4163102   0.5828343), wk =   0.0555556
        k(   55) = (  -0.0000000  -0.3330482   0.4995723), wk =   0.0277778
        k(   56) = (   0.6660964   0.1665241   0.0000000), wk =   0.0277778
        k(   57) = (  -0.2497861  -0.7493584   0.9158825), wk =   0.0555556
        k(   58) = (  -0.1665241  -0.6660964   0.8326205), wk =   0.0555556
        k(   59) = (  -0.0832620  -0.5828343   0.7493584), wk =   0.0555556
        k(   60) = (  -0.0000000  -0.4995723   0.6660964), wk =   0.0277778
        k(   61) = (  -0.1665241  -0.8326205   0.9991446), wk =   0.0277778
        k(   62) = (  -0.0832620  -0.7493584   0.9158825), wk =   0.0555556
        k(   63) = (  -0.0000000  -0.6660964   0.8326205), wk =   0.0277778
        k(   64) = (  -0.9991446   0.1665241   0.0000000), wk =   0.0138889
        k(   65) = (  -0.3330482  -0.6660964   0.9991446), wk =   0.0277778
        k(   66) = (  -0.2497861  -0.5828343   0.9158825), wk =   0.0555556
        k(   67) = (  -0.1665241  -0.4995723   0.8326205), wk =   0.0277778
        k(   68) = (  -0.1665241  -0.6660964   0.9991446), wk =   0.0277778
        k(   69) = (  -0.0832620  -0.5828343   0.9158825), wk =   0.0555556
        k(   70) = (   0.0000000  -0.4995723   0.8326205), wk =   0.0277778
        k(   71) = (  -0.9991446   0.3330482   0.0000000), wk =   0.0138889
        k(   72) = (  -0.9991446   0.4995723   0.0000000), wk =   0.0069444

     Dense  grid:    51493 G-vectors     FFT dimensions: (  60,  60,  60)

     Estimated max dynamical RAM per process >      81.59 MB

     Estimated total dynamical RAM >     326.36 MB

     Check: negative core charge=   -0.000001

     Initial potential from superposition of free atoms

     starting charge      27.9983, renormalised to      28.0000
     Starting wfcs are   18 randomized atomic wfcs

     total cpu time spent up to now is        2.0 secs

     Self-consistent Calculation

     iteration #  1     ecut=   110.00 Ry     beta= 0.70
     Davidson diagonalization with overlap
     ethr =  1.00E-02,  avg # of iterations =  2.4

     Threshold (ethr) on eigenvalues was too large:
     Diagonalizing with lowered threshold

     Davidson diagonalization with overlap
     ethr =  9.79E-05,  avg # of iterations =  2.8

     total cpu time spent up to now is       10.5 secs

     total energy              =    -427.30217835 Ry
     estimated scf accuracy    <       0.02971500 Ry

     iteration #  2     ecut=   110.00 Ry     beta= 0.70
     Davidson diagonalization with overlap
     ethr =  1.06E-04,  avg # of iterations =  1.0

     total cpu time spent up to now is       14.1 secs

     total energy              =    -427.30292584 Ry
     estimated scf accuracy    <       0.00174961 Ry

     iteration #  3     ecut=   110.00 Ry     beta= 0.70
     Davidson diagonalization with overlap
     ethr =  6.25E-06,  avg # of iterations =  2.9

     total cpu time spent up to now is       18.4 secs

     total energy              =    -427.30301363 Ry
     estimated scf accuracy    <       0.00002646 Ry

     iteration #  4     ecut=   110.00 Ry     beta= 0.70
     Davidson diagonalization with overlap
     ethr =  9.45E-08,  avg # of iterations =  2.7

     total cpu time spent up to now is       23.7 secs

     total energy              =    -427.30302520 Ry
     estimated scf accuracy    <       0.00000274 Ry

     iteration #  5     ecut=   110.00 Ry     beta= 0.70
     Davidson diagonalization with overlap
     ethr =  9.77E-09,  avg # of iterations =  2.1

     total cpu time spent up to now is       28.8 secs

     total energy              =    -427.30302580 Ry
     estimated scf accuracy    <       0.00000008 Ry

     iteration #  6     ecut=   110.00 Ry     beta= 0.70
     Davidson diagonalization with overlap
     ethr =  2.99E-10,  avg # of iterations =  3.2

     total cpu time spent up to now is       34.4 secs

     total energy              =    -427.30302585 Ry
     estimated scf accuracy    <          5.7E-09 Ry

     iteration #  7     ecut=   110.00 Ry     beta= 0.70
     Davidson diagonalization with overlap
     ethr =  2.03E-11,  avg # of iterations =  2.5

     total cpu time spent up to now is       39.5 secs

     total energy              =    -427.30302585 Ry
     estimated scf accuracy    <          8.8E-11 Ry

     iteration #  8     ecut=   110.00 Ry     beta= 0.70
     Davidson diagonalization with overlap
     ethr =  3.14E-13,  avg # of iterations =  4.0

     total cpu time spent up to now is       45.8 secs

     total energy              =    -427.30302585 Ry
     estimated scf accuracy    <          1.7E-11 Ry

     iteration #  9     ecut=   110.00 Ry     beta= 0.70
     Davidson diagonalization with overlap
     ethr =  1.00E-13,  avg # of iterations =  2.0

     total cpu time spent up to now is       50.7 secs

     End of self-consistent calculation

          k = 0.0000 0.0000 0.0000 (  6423 PWs)   bands (ev):

   -17.2757 -17.2757 -17.2757 -17.2461 -17.2461 -17.0753 -17.0753 -17.0753
   -17.0686 -17.0686  -4.7448   6.7337   7.4289   7.4289   7.4289   9.9417

          k = 0.0833 0.0833-0.0833 (  6444 PWs)   bands (ev):

   -17.2791 -17.2791 -17.2747 -17.2415 -17.2415 -17.0821 -17.0821 -17.0764
   -17.0625 -17.0625  -4.6664   5.6496   7.2806   7.2806   8.0196  10.1424

          k = 0.1665 0.1665-0.1665 (  6453 PWs)   bands (ev):

   -17.2852 -17.2852 -17.2721 -17.2324 -17.2324 -17.0910 -17.0910 -17.0793
   -17.0554 -17.0554  -4.4344   4.1960   6.9598   6.9598   8.0805  10.5738

          k = 0.2498 0.2498-0.2498 (  6453 PWs)   bands (ev):

   -17.2903 -17.2903 -17.2685 -17.2234 -17.2234 -17.0984 -17.0984 -17.0835
   -17.0499 -17.0499  -4.0613   2.7912   6.6294   6.6294   7.8372  10.9502

          k = 0.3330 0.3330-0.3330 (  6477 PWs)   bands (ev):

   -17.2936 -17.2936 -17.2648 -17.2169 -17.2169 -17.1033 -17.1033 -17.0877
   -17.0463 -17.0463  -3.5810   1.5428   6.3667   6.3667   7.5930  11.1164

          k = 0.4163 0.4163-0.4163 (  6469 PWs)   bands (ev):

   -17.2953 -17.2953 -17.2620 -17.2134 -17.2134 -17.1058 -17.1058 -17.0909
   -17.0444 -17.0444  -3.0909   0.5816   6.2018   6.2018   7.4314  11.1327

          k =-0.4996-0.4996 0.4996 (  6442 PWs)   bands (ev):

   -17.2957 -17.2957 -17.2609 -17.2123 -17.2123 -17.1065 -17.1065 -17.0920
   -17.0438 -17.0438  -2.8490   0.1810   6.1458   6.1458   7.3759  11.1221

          k = 0.1665 0.0000 0.0000 (  6435 PWs)   bands (ev):

   -17.2791 -17.2779 -17.2779 -17.2429 -17.2368 -17.0920 -17.0721 -17.0721
   -17.0715 -17.0588  -4.6400   5.5459   7.0147   7.0147   8.5730   9.6312

          k = 0.2498 0.0833-0.0833 (  6452 PWs)   bands (ev):

   -17.2856 -17.2820 -17.2755 -17.2367 -17.2271 -17.1028 -17.0812 -17.0722
   -17.0630 -17.0533  -4.4585   4.4697   6.6530   6.6926   8.9004   9.6900

          k = 0.3330 0.1665-0.1665 (  6453 PWs)   bands (ev):

   -17.2924 -17.2873 -17.2704 -17.2281 -17.2172 -17.1116 -17.0899 -17.0769
   -17.0556 -17.0471  -4.1305   3.1557   6.2989   6.3277   8.7209  10.2014

          k = 0.4163 0.2498-0.2498 (  6447 PWs)   bands (ev):

   -17.2974 -17.2916 -17.2643 -17.2201 -17.2101 -17.1166 -17.0974 -17.0837
   -17.0499 -17.0421  -3.6798   1.8975   5.9177   6.0973   8.4600  10.6497

          k = 0.4996 0.3330-0.3330 (  6444 PWs)   bands (ev):

   -17.3003 -17.2946 -17.2586 -17.2139 -17.2073 -17.1168 -17.1036 -17.0907
   -17.0457 -17.0392  -3.1737   0.8445   5.6188   5.9843   8.2530  10.8572

          k =-0.4163-0.5828 0.5828 (  6457 PWs)   bands (ev):

   -17.3011 -17.2966 -17.2549 -17.2095 -17.2085 -17.1126 -17.1087 -17.0962
   -17.0428 -17.0385  -2.8075   0.2250   5.4303   5.9945   8.1395  10.9654

          k =-0.3330-0.4996 0.4996 (  6456 PWs)   bands (ev):

   -17.3000 -17.2976 -17.2547 -17.2120 -17.2072 -17.1122 -17.1066 -17.0979
   -17.0413 -17.0401  -2.8942   0.3634   5.3663   6.1236   8.1318  11.0896

          k =-0.2498-0.4163 0.4163 (  6461 PWs)   bands (ev):

   -17.2973 -17.2971 -17.2581 -17.2168 -17.2082 -17.1130 -17.1032 -17.0923
   -17.0441 -17.0415  -3.3422   1.1655   5.4366   6.3588   8.2276  11.1623

          k =-0.1665-0.3330 0.3330 (  6452 PWs)   bands (ev):

   -17.2952 -17.2924 -17.2639 -17.2229 -17.2135 -17.1096 -17.0999 -17.0831
   -17.0503 -17.0436  -3.8423   2.3018   5.6507   6.6746   8.4048  10.9197

          k =-0.0833-0.2498 0.2498 (  6453 PWs)   bands (ev):

   -17.2909 -17.2863 -17.2701 -17.2304 -17.2225 -17.1024 -17.0944 -17.0743
   -17.0585 -17.0479  -4.2561   3.5806   6.0244   7.0187   8.5820  10.5333

          k =-0.0000-0.1665 0.1665 (  6439 PWs)   bands (ev):

   -17.2848 -17.2802 -17.2745 -17.2379 -17.2331 -17.0927 -17.0870 -17.0689
   -17.0667 -17.0544  -4.5365   4.8132   6.5971   7.2770   8.4865  10.1792

          k = 0.3330 0.0000 0.0000 (  6451 PWs)   bands (ev):

   -17.2836 -17.2836 -17.2821 -17.2337 -17.2165 -17.1170 -17.0800 -17.0638
   -17.0638 -17.0541  -4.3274   4.0939   6.2715   6.2715   9.0374   9.7095

          k = 0.4163 0.0833-0.0833 (  6445 PWs)   bands (ev):

   -17.2918 -17.2878 -17.2760 -17.2261 -17.2050 -17.1293 -17.0880 -17.0662
   -17.0570 -17.0486  -4.0464   3.1715   5.8379   5.9373   9.0455   9.8833

          k = 0.4996 0.1665-0.1665 (  6446 PWs)   bands (ev):

   -17.2996 -17.2921 -17.2665 -17.2173 -17.1961 -17.1374 -17.0973 -17.0760
   -17.0502 -17.0404  -3.6322   2.0815   5.3243   5.7076   9.1215  10.2498

          k = 0.5828 0.2498-0.2498 (  6450 PWs)   bands (ev):

   -17.3055 -17.2958 -17.2561 -17.2090 -17.1925 -17.1392 -17.1063 -17.0874
   -17.0446 -17.0339  -3.1304   1.0529   4.8716   5.6063   8.9940  10.8075

          k =-0.3330-0.6661 0.6661 (  6452 PWs)   bands (ev):

   -17.3088 -17.2986 -17.2473 -17.2019 -17.1951 -17.1339 -17.1146 -17.0975
   -17.0404 -17.0303  -2.6790   0.3033   4.5451   5.6401   8.8932  11.0586

          k =-0.2498-0.5828 0.5828 (  6456 PWs)   bands (ev):

   -17.3091 -17.3004 -17.2428 -17.2024 -17.1969 -17.1232 -17.1214 -17.1040
   -17.0378 -17.0304  -2.5988   0.1849   4.3723   5.8039   8.8834  11.1964

          k =-0.1665-0.4996 0.4996 (  6452 PWs)   bands (ev):

   -17.3062 -17.3010 -17.2444 -17.2112 -17.1960 -17.1244 -17.1092 -17.1061
   -17.0370 -17.0342  -2.9768   0.7832   4.3778   6.0807   8.9597  11.3652

          k =-0.0833-0.4163 0.4163 (  6457 PWs)   bands (ev):

   -17.3005 -17.2996 -17.2521 -17.2186 -17.2010 -17.1214 -17.1053 -17.0933
   -17.0417 -17.0385  -3.4844   1.7294   4.6034   6.4349   9.0693  11.3593

          k =-0.0000-0.3330 0.3330 (  6445 PWs)   bands (ev):

   -17.2962 -17.2930 -17.2623 -17.2249 -17.2109 -17.1133 -17.1009 -17.0797
   -17.0517 -17.0421  -3.9319   2.7310   5.1295   6.7935   9.0416  10.8823

          k = 0.4996 0.0000 0.0000 (  6454 PWs)   bands (ev):

   -17.2908 -17.2908 -17.2796 -17.2191 -17.1911 -17.1458 -17.0936 -17.0573
   -17.0529 -17.0529  -3.8119   2.6731   5.5862   5.5862   8.5118   9.9455

          k = 0.5828 0.0833-0.0833 (  6440 PWs)   bands (ev):

   -17.2980 -17.2945 -17.2709 -17.2099 -17.1791 -17.1584 -17.1027 -17.0682
   -17.0471 -17.0426  -3.4378   1.8729   5.1320   5.3382   8.6064   9.8458

          k = 0.6661 0.1665-0.1665 (  6456 PWs)   bands (ev):

   -17.3063 -17.2979 -17.2573 -17.2004 -17.1732 -17.1635 -17.1129 -17.0830
   -17.0417 -17.0330  -2.9544   1.0052   4.5378   5.2216   8.8052  10.3236

          k =-0.2498-0.7494 0.7494 (  6462 PWs)   bands (ev):

   -17.3125 -17.3007 -17.2443 -17.1913 -17.1752 -17.1599 -17.1232 -17.0969
   -17.0374 -17.0262  -2.4540   0.2564   4.0327   5.2460   8.8376  11.3675

          k =-0.1665-0.6661 0.6661 (  6458 PWs)   bands (ev):

   -17.3152 -17.3027 -17.2360 -17.1842 -17.1828 -17.1502 -17.1321 -17.1057
   -17.0348 -17.0233  -2.2209  -0.0502   3.7187   5.4083   8.9143  12.0662

          k =-0.0833-0.5828 0.5828 (  6471 PWs)   bands (ev):

   -17.3139 -17.3034 -17.2342 -17.1969 -17.1826 -17.1359 -17.1333 -17.1085
   -17.0340 -17.0252  -2.5118   0.3368   3.6561   5.6921   9.0704  12.2177

          k = 0.0000-0.4996 0.4996 (  6447 PWs)   bands (ev):

   -17.3087 -17.3025 -17.2398 -17.2105 -17.1893 -17.1314 -17.1141 -17.1064
   -17.0352 -17.0318  -3.0149   1.0434   3.9234   6.0600   9.2154  12.0272

          k = 0.6661 0.0000 0.0000 (  6442 PWs)   bands (ev):

   -17.2975 -17.2975 -17.2702 -17.2002 -17.1760 -17.1634 -17.1115 -17.0682
   -17.0426 -17.0426  -3.1026   1.3071   5.0637   5.0637   8.1825   9.3659

          k = 0.7494 0.0833-0.0833 (  6465 PWs)   bands (ev):

   -17.3034 -17.3002 -17.2587 -17.1897 -17.1879 -17.1517 -17.1220 -17.0807
   -17.0382 -17.0352  -2.6456   0.6071   4.6442   4.9188   8.3579   9.2737

          k =-0.1665-0.8326 0.8326 (  6481 PWs)   bands (ev):

   -17.3110 -17.3024 -17.2431 -17.1913 -17.1794 -17.1473 -17.1332 -17.0970
   -17.0349 -17.0269  -2.1246  -0.0636   4.0421   4.9168   8.5350  10.0248

          k =-0.0833-0.7494 0.7494 (  6472 PWs)   bands (ev):

   -17.3163 -17.3039 -17.2328 -17.1812 -17.1708 -17.1555 -17.1433 -17.1075
   -17.0329 -17.0215  -1.7761  -0.4523   3.5685   5.0575   8.6532  11.3560

          k =-0.0000-0.6661 0.6661 (  6459 PWs)   bands (ev):

   -17.3175 -17.3044 -17.2308 -17.1755 -17.1714 -17.1591 -17.1448 -17.1096
   -17.0326 -17.0207  -2.0178  -0.1801   3.3985   5.3272   8.8570  12.8189

          k = 0.8326 0.0000 0.0000 (  6462 PWs)   bands (ev):

   -17.3021 -17.3021 -17.2541 -17.2055 -17.1785 -17.1353 -17.1325 -17.0859
   -17.0352 -17.0352  -2.2136   0.0185   4.7403   4.7403   8.0970   8.7176

          k =-0.0833-0.9159 0.9159 (  6453 PWs)   bands (ev):

   -17.3064 -17.3034 -17.2403 -17.2153 -17.1672 -17.1440 -17.1252 -17.1001
   -17.0332 -17.0305  -1.6902  -0.5903   4.3967   4.7042   8.3095   8.8259

          k =-0.0000-0.8326 0.8326 (  6485 PWs)   bands (ev):

   -17.3127 -17.3041 -17.2313 -17.2070 -17.1595 -17.1528 -17.1318 -17.1093
   -17.0324 -17.0246  -1.3510  -0.9183   3.8743   4.8133   8.4386   9.8908

          k =-0.9991 0.0000 0.0000 (  6434 PWs)   bands (ev):

   -17.3037 -17.3037 -17.2321 -17.2321 -17.1554 -17.1554 -17.1088 -17.1088
   -17.0326 -17.0326  -1.1647  -1.1647   4.6311   4.6311   8.2757   8.2757

          k = 0.3330 0.1665-0.0000 (  6455 PWs)   bands (ev):

   -17.2908 -17.2862 -17.2727 -17.2307 -17.2164 -17.1144 -17.0875 -17.0699
   -17.0604 -17.0482  -4.2278   3.6265   5.8566   6.6218   9.3159   9.6474

          k = 0.4163 0.2498-0.0833 (  6446 PWs)   bands (ev):

   -17.2967 -17.2924 -17.2649 -17.2230 -17.2063 -17.1235 -17.0952 -17.0789
   -17.0512 -17.0424  -3.8563   2.5388   5.2793   6.3584   9.2449  10.1756

          k = 0.4996 0.3330-0.1665 (  6462 PWs)   bands (ev):

   -17.3020 -17.2967 -17.2558 -17.2156 -17.1997 -17.1279 -17.1018 -17.0904
   -17.0441 -17.0375  -3.3763   1.4397   4.9255   6.0601   9.0499  10.6748

          k =-0.4163-0.5828 0.7494 (  6462 PWs)   bands (ev):

   -17.3057 -17.2989 -17.2487 -17.2089 -17.1983 -17.1265 -17.1088 -17.0995
   -17.0403 -17.0338  -2.8824   0.5415   4.7367   5.8451   8.9063  10.8330

          k =-0.3330-0.4996 0.6661 (  6452 PWs)   bands (ev):

   -17.3070 -17.2995 -17.2460 -17.2047 -17.2001 -17.1224 -17.1152 -17.1022
   -17.0392 -17.0324  -2.6349   0.1547   4.6777   5.7678   8.8553  10.8475

          k = 0.4996 0.1665 0.0000 (  6450 PWs)   bands (ev):

   -17.2960 -17.2938 -17.2696 -17.2182 -17.1932 -17.1419 -17.0957 -17.0715
   -17.0495 -17.0439  -3.7200   2.3949   5.1903   5.7807   9.1306   9.9712

          k = 0.5828 0.2498-0.0833 (  6454 PWs)   bands (ev):

   -17.3032 -17.2983 -17.2578 -17.2095 -17.1843 -17.1498 -17.1049 -17.0841
   -17.0422 -17.0364  -3.2702   1.4860   4.6464   5.5303   9.3679  10.3211

          k =-0.3330-0.6661 0.8326 (  6452 PWs)   bands (ev):

   -17.3095 -17.3010 -17.2458 -17.2011 -17.1816 -17.1506 -17.1147 -17.0969
   -17.0379 -17.0295  -2.7596   0.6237   4.2533   5.3542   9.3498  10.9747

          k =-0.2498-0.5828 0.7494 (  6465 PWs)   bands (ev):

   -17.3128 -17.3027 -17.2376 -17.1948 -17.1845 -17.1446 -17.1240 -17.1051
   -17.0354 -17.0259  -2.3836   0.0784   4.0084   5.3386   9.3536  11.1131

          k =-0.1665-0.4996 0.6661 (  6473 PWs)   bands (ev):

   -17.3124 -17.3033 -17.2360 -17.1986 -17.1851 -17.1399 -17.1236 -17.1077
   -17.0346 -17.0267  -2.4866   0.2229   3.9321   5.4875   9.4375  11.0954

          k =-0.0833-0.4163 0.5828 (  6469 PWs)   bands (ev):

   -17.3082 -17.3027 -17.2419 -17.2082 -17.1869 -17.1393 -17.1095 -17.1053
   -17.0356 -17.0318  -2.9502   0.9195   4.0704   5.7672   9.5708  10.9879

          k =-0.0000-0.3330 0.4996 (  6467 PWs)   bands (ev):

   -17.3009 -17.3004 -17.2533 -17.2163 -17.1950 -17.1334 -17.1017 -17.0915
   -17.0411 -17.0380  -3.4490   1.7677   4.4986   6.1064   9.6244  10.4835

          k = 0.6661 0.1665 0.0000 (  6445 PWs)   bands (ev):

   -17.3012 -17.3006 -17.2611 -17.2003 -17.1709 -17.1671 -17.1123 -17.0784
   -17.0393 -17.0381  -3.0241   1.1683   4.7053   5.0932   8.7864   9.7026

          k =-0.2498-0.7494 0.9159 (  6460 PWs)   bands (ev):

   -17.3089 -17.3034 -17.2460 -17.1905 -17.1774 -17.1596 -17.1231 -17.0941
   -17.0350 -17.0296  -2.5180   0.4333   4.1914   4.9079   9.0934  10.2086

          k =-0.1665-0.6661 0.8326 (  6469 PWs)   bands (ev):

   -17.3147 -17.3050 -17.2332 -17.1822 -17.1745 -17.1600 -17.1340 -17.1069
   -17.0325 -17.0234  -2.0532  -0.1511   3.7456   4.9099   9.1917  11.3979

          k =-0.0833-0.5828 0.7494 (  6473 PWs)   bands (ev):

   -17.3167 -17.3058 -17.2283 -17.1814 -17.1693 -17.1603 -17.1400 -17.1115
   -17.0315 -17.0215  -2.0161  -0.1901   3.5136   5.0843   9.3468  12.1186

          k =-0.0000-0.4996 0.6661 (  6468 PWs)   bands (ev):

   -17.3142 -17.3052 -17.2314 -17.1954 -17.1754 -17.1497 -17.1289 -17.1102
   -17.0323 -17.0247  -2.4468   0.3208   3.5951   5.3932   9.5496  11.8392

          k =-0.1665-0.8326 0.9991 (  6466 PWs)   bands (ev):

   -17.3053 -17.3052 -17.2460 -17.1992 -17.1789 -17.1404 -17.1330 -17.0938
   -17.0323 -17.0323  -2.1577  -0.0245   4.4396   4.6297   8.6671   9.1677

          k =-0.0833-0.7494 0.9159 (  6483 PWs)   bands (ev):

   -17.3121 -17.3064 -17.2299 -17.2013 -17.1685 -17.1448 -17.1370 -17.1097
   -17.0306 -17.0253  -1.6402  -0.5938   3.9506   4.5867   8.9369   9.9676

          k =-0.0000-0.6661 0.8326 (  6473 PWs)   bands (ev):

   -17.3166 -17.3067 -17.2252 -17.1854 -17.1656 -17.1506 -17.1503 -17.1141
   -17.0303 -17.0211  -1.5611  -0.6560   3.5537   4.7644   9.1064  11.3761

          k =-0.9991 0.1665 0.0000 (  6484 PWs)   bands (ev):

   -17.3068 -17.3068 -17.2249 -17.2249 -17.1558 -17.1558 -17.1153 -17.1153
   -17.0299 -17.0299  -1.1465  -1.1465   4.4114   4.4114   8.7953   8.7953

          k =-0.3330-0.6661 0.9991 (  6453 PWs)   bands (ev):

   -17.3077 -17.3049 -17.2435 -17.2008 -17.1736 -17.1592 -17.1148 -17.0988
   -17.0334 -17.0319  -2.7968   0.8024   4.0796   5.2167  10.1472  10.3033

          k =-0.2498-0.5828 0.9159 (  6481 PWs)   bands (ev):

   -17.3134 -17.3069 -17.2306 -17.1913 -17.1692 -17.1616 -17.1278 -17.1101
   -17.0310 -17.0250  -2.2896   0.1359   3.7599   4.9352  10.2074  10.9434

          k =-0.1665-0.4996 0.8326 (  6480 PWs)   bands (ev):

   -17.3156 -17.3074 -17.2256 -17.1861 -17.1685 -17.1611 -17.1355 -17.1139
   -17.0303 -17.0226  -2.0143  -0.1999   3.6610   4.8273  10.1995  11.0056

          k =-0.1665-0.6661 0.9991 (  6480 PWs)   bands (ev):

   -17.3116 -17.3094 -17.2289 -17.1852 -17.1804 -17.1505 -17.1354 -17.1104
   -17.0283 -17.0263  -2.0033  -0.1609   3.9209   4.4938   9.9965  10.2751

          k =-0.0833-0.5828 0.9159 (  6495 PWs)   bands (ev):

   -17.3155 -17.3106 -17.2162 -17.1855 -17.1714 -17.1508 -17.1454 -17.1212
   -17.0268 -17.0221  -1.5860  -0.6019   3.6827   4.3587  10.2451  11.4415

          k = 0.0000-0.4996 0.8326 (  6492 PWs)   bands (ev):

   -17.3162 -17.3098 -17.2186 -17.1780 -17.1750 -17.1558 -17.1443 -17.1190
   -17.0277 -17.0217  -1.7881  -0.3857   3.5759   4.5510  10.4270  11.6706

          k =-0.9991 0.3330 0.0000 (  6492 PWs)   bands (ev):

   -17.3120 -17.3120 -17.2090 -17.2090 -17.1579 -17.1579 -17.1285 -17.1285
   -17.0252 -17.0252  -1.1088  -1.1088   4.0537   4.0537  10.0523  10.0523

          k =-0.9991 0.4996 0.0000 (  6476 PWs)   bands (ev):

   -17.3143 -17.3143 -17.1990 -17.1990 -17.1609 -17.1609 -17.1354 -17.1354
   -17.0232 -17.0232  -1.0894  -1.0894   3.9006   3.9006  11.4228  11.4229

     the Fermi energy is     7.3756 ev

!    total energy              =    -427.30302585 Ry
     estimated scf accuracy    <          8.4E-14 Ry
     smearing contrib. (-TS)   =      -0.00000273 Ry
     internal energy E=F+TS    =    -427.30302312 Ry

     The total energy is F=E-TS. E is the sum of the following terms:
     one-electron contribution =    -287.17310325 Ry
     hartree contribution      =     168.59451879 Ry
     xc contribution           =    -116.55063737 Ry
     ewald contribution        =    -192.17380129 Ry

     convergence has been achieved in   9 iterations

     Forces acting on atoms (cartesian axes, Ry/au):

     atom    1 type  1   force =     0.00000000    0.00000000    0.00000000
     atom    2 type  1   force =     0.00000000    0.00000000    0.00000000

     Total force =     0.000000     Total SCF correction =     0.000000


     Computing stress (Cartesian axis) and pressure

          total   stress  (Ry/bohr**3)                   (kbar)     P=      -16.42
  -0.00011162  -0.00000000   0.00000000          -16.42       -0.00        0.00
   0.00000000  -0.00011162   0.00000000            0.00      -16.42        0.00
   0.00000000   0.00000000  -0.00011162            0.00        0.00      -16.42

     Volume is kept fixed: isostatic pressure set to zero

     BFGS Geometry Optimization
     Energy error            =      6.3E-36 Ry
     Gradient error          =      0.0E+00 Ry/Bohr
     Cell gradient error     =      3.0E-15 kbar

     bfgs converged in   1 scf cycles and   0 bfgs steps
     (criteria: energy <  1.0E-04 Ry, force <  1.0E-03 Ry/Bohr, cell <  5.0E-01 kbar)

     End of BFGS Geometry Optimization

     Final enthalpy           =    -427.3030258515 Ry
Begin final coordinates
     new unit-cell volume =    331.67119 a.u.^3 (    49.14860 Ang^3 )
     density =      4.90777 g/cm^3

CELL_PARAMETERS (alat= 10.97870000)
   0.000000000   0.500428075   0.500428075
   0.500428075   0.000000000   0.500428075
   0.500428075   0.500428075   0.000000000

ATOMIC_POSITIONS (alat)
Ge               0.0000000000        0.0000000000        0.0000000000
Ge               0.2502140375        0.2502140375        0.2502140375
End final coordinates



     Writing config-only to output data dir ./Ge.save/ :
     XML data file

     Final scf calculation at the relaxed structure.
     The G-vectors are recalculated for the final unit cell
     Results may differ from those at the preceding step.
 
     Parallelization info
     --------------------
     sticks:   dense  smooth     PW     G-vecs:    dense   smooth      PW
     Min         453     453    128                12872    12872    1955
     Max         454     454    130                12876    12876    1956
     Sum        1813    1813    517                51493    51493    7823
 
     Using Slab Decomposition
 


     bravais-lattice index     =            0
     lattice parameter (alat)  =      10.9787  a.u.
     unit-cell volume          =     331.6712 (a.u.)^3
     number of atoms/cell      =            2
     number of atomic types    =            1
     number of electrons       =        28.00
     number of Kohn-Sham states=           16
     kinetic-energy cutoff     =     110.0000  Ry
     charge density cutoff     =     440.0000  Ry
     scf convergence threshold =      1.0E-12
     mixing beta               =       0.7000
     number of iterations used =            8  plain     mixing
     press convergence thresh. =      5.0E-01
     Exchange-correlation=  SLA  PW   PBX  PBC
                           (   1   4   3   4   0   0   0)

     celldm(1)=  10.978700  celldm(2)=   0.000000  celldm(3)=   0.000000
     celldm(4)=   0.000000  celldm(5)=   0.000000  celldm(6)=   0.000000

     crystal axes: (cart. coord. in units of alat)
               a(1) = (   0.000000   0.500428   0.500428 )  
               a(2) = (   0.500428   0.000000   0.500428 )  
               a(3) = (   0.500428   0.500428   0.000000 )  

     reciprocal axes: (cart. coord. in units 2 pi/alat)
               b(1) = ( -0.999145  0.999145  0.999145 )  
               b(2) = (  0.999145 -0.999145  0.999145 )  
               b(3) = (  0.999145  0.999145 -0.999145 )  


     PseudoPot. # 1 for Ge read from file:
     ./ge_pbe_v1.4.uspp.F.UPF
     MD5 check sum: 9c9eaa91e581c3f09632fb3098b2c6b2
     Pseudo is Ultrasoft + core correction, Zval = 14.0
     Generated by new atomic code, or converted to UPF format
     Using radial grid of  873 points,  6 beta functions with: 
                l(1) =   0
                l(2) =   0
                l(3) =   1
                l(4) =   1
                l(5) =   2
                l(6) =   2
     Q(r) pseudized with  8 coefficients,  rinner =    1.400   1.400   1.400
                                                       1.400   1.400

     atomic species   valence    mass     pseudopotential
     Ge               14.00    72.63000     Ge( 1.00)

     48 Sym. Ops., with inversion, found (24 have fractional translation)



   Cartesian axes

     site n.     atom                  positions (alat units)
         1        Ge     tau(   1) = (   0.0000000   0.0000000   0.0000000  )
         2        Ge     tau(   2) = (   0.2502140   0.2502140   0.2502140  )

     number of k points=    72  Gaussian smearing, width (Ry)=  0.0020
                       cart. coord. in units 2pi/alat
        k(    1) = (   0.0000000   0.0000000   0.0000000), wk =   0.0011574
        k(    2) = (   0.0832620   0.0832620  -0.0832620), wk =   0.0092593
        k(    3) = (   0.1665241   0.1665241  -0.1665241), wk =   0.0092593
        k(    4) = (   0.2497861   0.2497861  -0.2497861), wk =   0.0092593
        k(    5) = (   0.3330482   0.3330482  -0.3330482), wk =   0.0092593
        k(    6) = (   0.4163102   0.4163102  -0.4163102), wk =   0.0092593
        k(    7) = (  -0.4995723  -0.4995723   0.4995723), wk =   0.0046296
        k(    8) = (   0.1665241   0.0000000   0.0000000), wk =   0.0069444
        k(    9) = (   0.2497861   0.0832620  -0.0832620), wk =   0.0277778
        k(   10) = (   0.3330482   0.1665241  -0.1665241), wk =   0.0277778
        k(   11) = (   0.4163102   0.2497861  -0.2497861), wk =   0.0277778
        k(   12) = (   0.4995723   0.3330482  -0.3330482), wk =   0.0277778
        k(   13) = (  -0.4163102  -0.5828343   0.5828343), wk =   0.0277778
        k(   14) = (  -0.3330482  -0.4995723   0.4995723), wk =   0.0277778
        k(   15) = (  -0.2497861  -0.4163102   0.4163102), wk =   0.0277778
        k(   16) = (  -0.1665241  -0.3330482   0.3330482), wk =   0.0277778
        k(   17) = (  -0.0832620  -0.2497861   0.2497861), wk =   0.0277778
        k(   18) = (  -0.0000000  -0.1665241   0.1665241), wk =   0.0138889
        k(   19) = (   0.3330482   0.0000000   0.0000000), wk =   0.0069444
        k(   20) = (   0.4163102   0.0832620  -0.0832620), wk =   0.0277778
        k(   21) = (   0.4995723   0.1665241  -0.1665241), wk =   0.0277778
        k(   22) = (   0.5828343   0.2497861  -0.2497861), wk =   0.0277778
        k(   23) = (  -0.3330482  -0.6660964   0.6660964), wk =   0.0277778
        k(   24) = (  -0.2497861  -0.5828343   0.5828343), wk =   0.0277778
        k(   25) = (  -0.1665241  -0.4995723   0.4995723), wk =   0.0277778
        k(   26) = (  -0.0832620  -0.4163102   0.4163102), wk =   0.0277778
        k(   27) = (  -0.0000000  -0.3330482   0.3330482), wk =   0.0138889
        k(   28) = (   0.4995723   0.0000000   0.0000000), wk =   0.0069444
        k(   29) = (   0.5828343   0.0832620  -0.0832620), wk =   0.0277778
        k(   30) = (   0.6660964   0.1665241  -0.1665241), wk =   0.0277778
        k(   31) = (  -0.2497861  -0.7493584   0.7493584), wk =   0.0277778
        k(   32) = (  -0.1665241  -0.6660964   0.6660964), wk =   0.0277778
        k(   33) = (  -0.0832620  -0.5828343   0.5828343), wk =   0.0277778
        k(   34) = (   0.0000000  -0.4995723   0.4995723), wk =   0.0138889
        k(   35) = (   0.6660964   0.0000000   0.0000000), wk =   0.0069444
        k(   36) = (   0.7493584   0.0832620  -0.0832620), wk =   0.0277778
        k(   37) = (  -0.1665241  -0.8326205   0.8326205), wk =   0.0277778
        k(   38) = (  -0.0832620  -0.7493584   0.7493584), wk =   0.0277778
        k(   39) = (  -0.0000000  -0.6660964   0.6660964), wk =   0.0138889
        k(   40) = (   0.8326205   0.0000000   0.0000000), wk =   0.0069444
        k(   41) = (  -0.0832620  -0.9158825   0.9158825), wk =   0.0277778
        k(   42) = (  -0.0000000  -0.8326205   0.8326205), wk =   0.0138889
        k(   43) = (  -0.9991446   0.0000000   0.0000000), wk =   0.0034722
        k(   44) = (   0.3330482   0.1665241  -0.0000000), wk =   0.0277778
        k(   45) = (   0.4163102   0.2497861  -0.0832620), wk =   0.0555556
        k(   46) = (   0.4995723   0.3330482  -0.1665241), wk =   0.0555556
        k(   47) = (  -0.4163102  -0.5828343   0.7493584), wk =   0.0555556
        k(   48) = (  -0.3330482  -0.4995723   0.6660964), wk =   0.0277778
        k(   49) = (   0.4995723   0.1665241   0.0000000), wk =   0.0277778
        k(   50) = (   0.5828343   0.2497861  -0.0832620), wk =   0.0555556
        k(   51) = (  -0.3330482  -0.6660964   0.8326205), wk =   0.0555556
        k(   52) = (  -0.2497861  -0.5828343   0.7493584), wk =   0.0555556
        k(   53) = (  -0.1665241  -0.4995723   0.6660964), wk =   0.0555556
        k(   54) = (  -0.0832620  -0.4163102   0.5828343), wk =   0.0555556
        k(   55) = (  -0.0000000  -0.3330482   0.4995723), wk =   0.0277778
        k(   56) = (   0.6660964   0.1665241   0.0000000), wk =   0.0277778
        k(   57) = (  -0.2497861  -0.7493584   0.9158825), wk =   0.0555556
        k(   58) = (  -0.1665241  -0.6660964   0.8326205), wk =   0.0555556
        k(   59) = (  -0.0832620  -0.5828343   0.7493584), wk =   0.0555556
        k(   60) = (  -0.0000000  -0.4995723   0.6660964), wk =   0.0277778
        k(   61) = (  -0.1665241  -0.8326205   0.9991446), wk =   0.0277778
        k(   62) = (  -0.0832620  -0.7493584   0.9158825), wk =   0.0555556
        k(   63) = (  -0.0000000  -0.6660964   0.8326205), wk =   0.0277778
        k(   64) = (  -0.9991446   0.1665241   0.0000000), wk =   0.0138889
        k(   65) = (  -0.3330482  -0.6660964   0.9991446), wk =   0.0277778
        k(   66) = (  -0.2497861  -0.5828343   0.9158825), wk =   0.0555556
        k(   67) = (  -0.1665241  -0.4995723   0.8326205), wk =   0.0277778
        k(   68) = (  -0.1665241  -0.6660964   0.9991446), wk =   0.0277778
        k(   69) = (  -0.0832620  -0.5828343   0.9158825), wk =   0.0555556
        k(   70) = (   0.0000000  -0.4995723   0.8326205), wk =   0.0277778
        k(   71) = (  -0.9991446   0.3330482   0.0000000), wk =   0.0138889
        k(   72) = (  -0.9991446   0.4995723   0.0000000), wk =   0.0069444

     Dense  grid:    51493 G-vectors     FFT dimensions: (  60,  60,  60)

     Estimated max dynamical RAM per process >      81.69 MB

     Estimated total dynamical RAM >     326.75 MB

     Check: negative core charge=   -0.000001

     Initial potential from superposition of free atoms

     starting charge      27.9983, renormalised to      28.0000
     Starting wfcs are   18 randomized atomic wfcs

     total cpu time spent up to now is       54.3 secs

     Self-consistent Calculation

     iteration #  1     ecut=   110.00 Ry     beta= 0.70
     Davidson diagonalization with overlap
     ethr =  1.00E-06,  avg # of iterations =  9.7

     total cpu time spent up to now is       64.1 secs

     total energy              =    -427.30213135 Ry
     estimated scf accuracy    <       0.03003776 Ry

     iteration #  2     ecut=   110.00 Ry     beta= 0.70
     Davidson diagonalization with overlap
     ethr =  1.07E-04,  avg # of iterations =  1.0

     total cpu time spent up to now is       67.9 secs

     total energy              =    -427.30293412 Ry
     estimated scf accuracy    <       0.00171007 Ry

     iteration #  3     ecut=   110.00 Ry     beta= 0.70
     Davidson diagonalization with overlap
     ethr =  6.11E-06,  avg # of iterations =  2.0

     total cpu time spent up to now is       71.8 secs

     total energy              =    -427.30301645 Ry
     estimated scf accuracy    <       0.00002537 Ry

     iteration #  4     ecut=   110.00 Ry     beta= 0.70
     Davidson diagonalization with overlap
     ethr =  9.06E-08,  avg # of iterations =  2.4

     total cpu time spent up to now is       77.2 secs

     total energy              =    -427.30302538 Ry
     estimated scf accuracy    <       0.00000265 Ry

     iteration #  5     ecut=   110.00 Ry     beta= 0.70
     Davidson diagonalization with overlap
     ethr =  9.46E-09,  avg # of iterations =  2.1

     total cpu time spent up to now is       81.9 secs

     total energy              =    -427.30302582 Ry
     estimated scf accuracy    <       0.00000006 Ry

     iteration #  6     ecut=   110.00 Ry     beta= 0.70
     Davidson diagonalization with overlap
     ethr =  2.15E-10,  avg # of iterations =  2.6

     total cpu time spent up to now is       87.1 secs

     total energy              =    -427.30302585 Ry
     estimated scf accuracy    <          4.1E-09 Ry

     iteration #  7     ecut=   110.00 Ry     beta= 0.70
     Davidson diagonalization with overlap
     ethr =  1.45E-11,  avg # of iterations =  2.5

     total cpu time spent up to now is       92.4 secs

     total energy              =    -427.30302585 Ry
     estimated scf accuracy    <          6.5E-11 Ry

     iteration #  8     ecut=   110.00 Ry     beta= 0.70
     Davidson diagonalization with overlap
     ethr =  2.31E-13,  avg # of iterations =  3.5

     total cpu time spent up to now is       98.1 secs

     total energy              =    -427.30302585 Ry
     estimated scf accuracy    <          1.1E-11 Ry

     iteration #  9     ecut=   110.00 Ry     beta= 0.70
     Davidson diagonalization with overlap
     ethr =  1.00E-13,  avg # of iterations =  2.0

     total cpu time spent up to now is      102.8 secs

     End of self-consistent calculation

          k = 0.0000 0.0000 0.0000 (  6423 PWs)   bands (ev):

   -17.2757 -17.2757 -17.2757 -17.2461 -17.2461 -17.0753 -17.0753 -17.0753
   -17.0686 -17.0686  -4.7448   6.7337   7.4289   7.4289   7.4289   9.9417

          k = 0.0833 0.0833-0.0833 (  6444 PWs)   bands (ev):

   -17.2791 -17.2791 -17.2747 -17.2415 -17.2415 -17.0821 -17.0821 -17.0764
   -17.0625 -17.0625  -4.6664   5.6496   7.2806   7.2806   8.0196  10.1424

          k = 0.1665 0.1665-0.1665 (  6453 PWs)   bands (ev):

   -17.2852 -17.2852 -17.2721 -17.2324 -17.2324 -17.0910 -17.0910 -17.0793
   -17.0554 -17.0554  -4.4344   4.1960   6.9598   6.9598   8.0805  10.5738

          k = 0.2498 0.2498-0.2498 (  6453 PWs)   bands (ev):

   -17.2903 -17.2903 -17.2685 -17.2234 -17.2234 -17.0984 -17.0984 -17.0835
   -17.0499 -17.0499  -4.0613   2.7912   6.6294   6.6294   7.8372  10.9502

          k = 0.3330 0.3330-0.3330 (  6477 PWs)   bands (ev):

   -17.2936 -17.2936 -17.2648 -17.2169 -17.2169 -17.1033 -17.1033 -17.0877
   -17.0463 -17.0463  -3.5810   1.5428   6.3667   6.3667   7.5930  11.1164

          k = 0.4163 0.4163-0.4163 (  6469 PWs)   bands (ev):

   -17.2953 -17.2953 -17.2620 -17.2134 -17.2134 -17.1058 -17.1058 -17.0909
   -17.0444 -17.0444  -3.0909   0.5816   6.2018   6.2018   7.4314  11.1327

          k =-0.4996-0.4996 0.4996 (  6442 PWs)   bands (ev):

   -17.2957 -17.2957 -17.2609 -17.2123 -17.2123 -17.1065 -17.1065 -17.0921
   -17.0438 -17.0438  -2.8490   0.1810   6.1458   6.1458   7.3759  11.1221

          k = 0.1665 0.0000 0.0000 (  6435 PWs)   bands (ev):

   -17.2791 -17.2779 -17.2779 -17.2429 -17.2368 -17.0920 -17.0721 -17.0721
   -17.0715 -17.0588  -4.6400   5.5459   7.0147   7.0147   8.5730   9.6312

          k = 0.2498 0.0833-0.0833 (  6452 PWs)   bands (ev):

   -17.2856 -17.2820 -17.2755 -17.2367 -17.2271 -17.1028 -17.0812 -17.0722
   -17.0630 -17.0534  -4.4585   4.4697   6.6530   6.6926   8.9004   9.6900

          k = 0.3330 0.1665-0.1665 (  6453 PWs)   bands (ev):

   -17.2924 -17.2873 -17.2704 -17.2281 -17.2172 -17.1116 -17.0899 -17.0769
   -17.0556 -17.0471  -4.1305   3.1557   6.2989   6.3277   8.7209  10.2014

          k = 0.4163 0.2498-0.2498 (  6447 PWs)   bands (ev):

   -17.2974 -17.2916 -17.2643 -17.2201 -17.2101 -17.1166 -17.0974 -17.0837
   -17.0499 -17.0422  -3.6798   1.8975   5.9177   6.0973   8.4600  10.6496

          k = 0.4996 0.3330-0.3330 (  6444 PWs)   bands (ev):

   -17.3003 -17.2946 -17.2586 -17.2139 -17.2073 -17.1168 -17.1036 -17.0907
   -17.0457 -17.0392  -3.1737   0.8445   5.6188   5.9843   8.2530  10.8572

          k =-0.4163-0.5828 0.5828 (  6457 PWs)   bands (ev):

   -17.3011 -17.2966 -17.2549 -17.2095 -17.2085 -17.1126 -17.1087 -17.0962
   -17.0428 -17.0385  -2.8075   0.2250   5.4303   5.9945   8.1395  10.9653

          k =-0.3330-0.4996 0.4996 (  6456 PWs)   bands (ev):

   -17.3000 -17.2976 -17.2547 -17.2120 -17.2072 -17.1122 -17.1066 -17.0979
   -17.0413 -17.0401  -2.8942   0.3634   5.3663   6.1236   8.1318  11.0896

          k =-0.2498-0.4163 0.4163 (  6461 PWs)   bands (ev):

   -17.2973 -17.2971 -17.2581 -17.2168 -17.2082 -17.1130 -17.1032 -17.0923
   -17.0441 -17.0415  -3.3422   1.1655   5.4366   6.3588   8.2276  11.1621

          k =-0.1665-0.3330 0.3330 (  6452 PWs)   bands (ev):

   -17.2952 -17.2924 -17.2639 -17.2229 -17.2135 -17.1097 -17.0999 -17.0831
   -17.0503 -17.0436  -3.8423   2.3018   5.6507   6.6746   8.4048  10.9196

          k =-0.0833-0.2498 0.2498 (  6453 PWs)   bands (ev):

   -17.2909 -17.2863 -17.2701 -17.2304 -17.2225 -17.1024 -17.0944 -17.0743
   -17.0585 -17.0479  -4.2561   3.5806   6.0244   7.0187   8.5820  10.5329

          k =-0.0000-0.1665 0.1665 (  6439 PWs)   bands (ev):

   -17.2848 -17.2802 -17.2745 -17.2379 -17.2331 -17.0927 -17.0870 -17.0689
   -17.0667 -17.0544  -4.5365   4.8132   6.5971   7.2770   8.4865  10.1786

          k = 0.3330 0.0000 0.0000 (  6451 PWs)   bands (ev):

   -17.2836 -17.2836 -17.2821 -17.2337 -17.2165 -17.1170 -17.0800 -17.0638
   -17.0638 -17.0541  -4.3274   4.0939   6.2715   6.2715   9.0374   9.7095

          k = 0.4163 0.0833-0.0833 (  6445 PWs)   bands (ev):

   -17.2918 -17.2878 -17.2760 -17.2261 -17.2050 -17.1293 -17.0880 -17.0662
   -17.0570 -17.0486  -4.0464   3.1715   5.8379   5.9373   9.0455   9.8833

          k = 0.4996 0.1665-0.1665 (  6446 PWs)   bands (ev):

   -17.2996 -17.2921 -17.2665 -17.2173 -17.1961 -17.1374 -17.0973 -17.0760
   -17.0502 -17.0404  -3.6322   2.0815   5.3243   5.7076   9.1215  10.2498

          k = 0.5828 0.2498-0.2498 (  6450 PWs)   bands (ev):

   -17.3056 -17.2958 -17.2561 -17.2091 -17.1925 -17.1392 -17.1063 -17.0874
   -17.0446 -17.0339  -3.1304   1.0529   4.8716   5.6063   8.9940  10.8075

          k =-0.3330-0.6661 0.6661 (  6452 PWs)   bands (ev):

   -17.3088 -17.2986 -17.2473 -17.2019 -17.1952 -17.1339 -17.1146 -17.0975
   -17.0404 -17.0303  -2.6790   0.3033   4.5451   5.6401   8.8932  11.0586

          k =-0.2498-0.5828 0.5828 (  6456 PWs)   bands (ev):

   -17.3091 -17.3004 -17.2428 -17.2024 -17.1969 -17.1232 -17.1214 -17.1040
   -17.0378 -17.0304  -2.5988   0.1849   4.3723   5.8039   8.8834  11.1964

          k =-0.1665-0.4996 0.4996 (  6452 PWs)   bands (ev):

   -17.3062 -17.3010 -17.2444 -17.2112 -17.1960 -17.1244 -17.1092 -17.1061
   -17.0370 -17.0343  -2.9768   0.7832   4.3778   6.0807   8.9597  11.3652

          k =-0.0833-0.4163 0.4163 (  6457 PWs)   bands (ev):

   -17.3005 -17.2996 -17.2521 -17.2186 -17.2010 -17.1214 -17.1053 -17.0933
   -17.0417 -17.0385  -3.4844   1.7294   4.6034   6.4349   9.0694  11.3593

          k =-0.0000-0.3330 0.3330 (  6445 PWs)   bands (ev):

   -17.2962 -17.2930 -17.2623 -17.2249 -17.2109 -17.1133 -17.1010 -17.0797
   -17.0517 -17.0421  -3.9319   2.7310   5.1295   6.7935   9.0416  10.8819

          k = 0.4996 0.0000 0.0000 (  6454 PWs)   bands (ev):

   -17.2908 -17.2908 -17.2796 -17.2191 -17.1911 -17.1458 -17.0936 -17.0573
   -17.0529 -17.0529  -3.8119   2.6731   5.5862   5.5862   8.5118   9.9455

          k = 0.5828 0.0833-0.0833 (  6440 PWs)   bands (ev):

   -17.2980 -17.2945 -17.2709 -17.2099 -17.1791 -17.1584 -17.1027 -17.0682
   -17.0471 -17.0426  -3.4378   1.8729   5.1320   5.3382   8.6064   9.8458

          k = 0.6661 0.1665-0.1665 (  6456 PWs)   bands (ev):

   -17.3063 -17.2979 -17.2573 -17.2004 -17.1732 -17.1635 -17.1129 -17.0830
   -17.0417 -17.0330  -2.9544   1.0052   4.5378   5.2216   8.8052  10.3236

          k =-0.2498-0.7494 0.7494 (  6462 PWs)   bands (ev):

   -17.3125 -17.3007 -17.2443 -17.1913 -17.1752 -17.1599 -17.1232 -17.0969
   -17.0374 -17.0262  -2.4540   0.2564   4.0327   5.2460   8.8376  11.3675

          k =-0.1665-0.6661 0.6661 (  6458 PWs)   bands (ev):

   -17.3152 -17.3027 -17.2360 -17.1842 -17.1828 -17.1502 -17.1321 -17.1057
   -17.0348 -17.0233  -2.2209  -0.0502   3.7187   5.4083   8.9143  12.0662

          k =-0.0833-0.5828 0.5828 (  6471 PWs)   bands (ev):

   -17.3139 -17.3034 -17.2342 -17.1969 -17.1826 -17.1359 -17.1333 -17.1085
   -17.0340 -17.0252  -2.5118   0.3368   3.6561   5.6921   9.0704  12.2177

          k = 0.0000-0.4996 0.4996 (  6447 PWs)   bands (ev):

   -17.3087 -17.3025 -17.2398 -17.2105 -17.1893 -17.1314 -17.1141 -17.1064
   -17.0352 -17.0318  -3.0149   1.0434   3.9234   6.0600   9.2154  12.0264

          k = 0.6661 0.0000 0.0000 (  6442 PWs)   bands (ev):

   -17.2975 -17.2975 -17.2702 -17.2002 -17.1760 -17.1634 -17.1115 -17.0682
   -17.0426 -17.0426  -3.1026   1.3071   5.0637   5.0637   8.1825   9.3659

          k = 0.7494 0.0833-0.0833 (  6465 PWs)   bands (ev):

   -17.3034 -17.3002 -17.2587 -17.1897 -17.1879 -17.1518 -17.1220 -17.0807
   -17.0382 -17.0352  -2.6456   0.6071   4.6442   4.9188   8.3579   9.2737

          k =-0.1665-0.8326 0.8326 (  6481 PWs)   bands (ev):

   -17.3110 -17.3024 -17.2431 -17.1913 -17.1794 -17.1473 -17.1332 -17.0970
   -17.0349 -17.0269  -2.1246  -0.0636   4.0421   4.9168   8.5350  10.0248

          k =-0.0833-0.7494 0.7494 (  6472 PWs)   bands (ev):

   -17.3163 -17.3039 -17.2328 -17.1813 -17.1708 -17.1555 -17.1433 -17.1075
   -17.0329 -17.0215  -1.7761  -0.4523   3.5685   5.0575   8.6532  11.3560

          k =-0.0000-0.6661 0.6661 (  6459 PWs)   bands (ev):

   -17.3176 -17.3044 -17.2308 -17.1755 -17.1714 -17.1591 -17.1448 -17.1096
   -17.0326 -17.0207  -2.0178  -0.1801   3.3985   5.3272   8.8570  12.8189

          k = 0.8326 0.0000 0.0000 (  6462 PWs)   bands (ev):

   -17.3021 -17.3021 -17.2541 -17.2055 -17.1785 -17.1353 -17.1325 -17.0859
   -17.0352 -17.0352  -2.2136   0.0185   4.7403   4.7403   8.0970   8.7176

          k =-0.0833-0.9159 0.9159 (  6453 PWs)   bands (ev):

   -17.3064 -17.3034 -17.2403 -17.2153 -17.1672 -17.1440 -17.1252 -17.1001
   -17.0332 -17.0305  -1.6902  -0.5903   4.3967   4.7042   8.3095   8.8259

          k =-0.0000-0.8326 0.8326 (  6485 PWs)   bands (ev):

   -17.3127 -17.3041 -17.2313 -17.2070 -17.1596 -17.1528 -17.1318 -17.1093
   -17.0324 -17.0246  -1.3510  -0.9183   3.8743   4.8133   8.4386   9.8908

          k =-0.9991 0.0000 0.0000 (  6434 PWs)   bands (ev):

   -17.3037 -17.3037 -17.2321 -17.2321 -17.1554 -17.1554 -17.1088 -17.1088
   -17.0326 -17.0326  -1.1647  -1.1647   4.6311   4.6311   8.2757   8.2757

          k = 0.3330 0.1665-0.0000 (  6455 PWs)   bands (ev):

   -17.2908 -17.2863 -17.2727 -17.2307 -17.2164 -17.1144 -17.0875 -17.0699
   -17.0604 -17.0482  -4.2278   3.6265   5.8566   6.6218   9.3159   9.6474

          k = 0.4163 0.2498-0.0833 (  6446 PWs)   bands (ev):

   -17.2967 -17.2924 -17.2649 -17.2230 -17.2063 -17.1235 -17.0952 -17.0789
   -17.0512 -17.0424  -3.8563   2.5388   5.2793   6.3584   9.2449  10.1756

          k = 0.4996 0.3330-0.1665 (  6462 PWs)   bands (ev):

   -17.3020 -17.2967 -17.2558 -17.2156 -17.1997 -17.1279 -17.1018 -17.0904
   -17.0441 -17.0375  -3.3763   1.4397   4.9255   6.0601   9.0499  10.6748

          k =-0.4163-0.5828 0.7494 (  6462 PWs)   bands (ev):

   -17.3057 -17.2989 -17.2487 -17.2089 -17.1983 -17.1265 -17.1088 -17.0995
   -17.0403 -17.0338  -2.8824   0.5414   4.7367   5.8451   8.9063  10.8330

          k =-0.3330-0.4996 0.6661 (  6452 PWs)   bands (ev):

   -17.3070 -17.2995 -17.2460 -17.2047 -17.2001 -17.1224 -17.1152 -17.1022
   -17.0392 -17.0324  -2.6349   0.1547   4.6777   5.7678   8.8553  10.8475

          k = 0.4996 0.1665 0.0000 (  6450 PWs)   bands (ev):

   -17.2960 -17.2938 -17.2697 -17.2182 -17.1932 -17.1419 -17.0957 -17.0715
   -17.0495 -17.0439  -3.7200   2.3949   5.1903   5.7807   9.1306   9.9712

          k = 0.5828 0.2498-0.0833 (  6454 PWs)   bands (ev):

   -17.3032 -17.2983 -17.2579 -17.2095 -17.1843 -17.1498 -17.1049 -17.0841
   -17.0422 -17.0364  -3.2702   1.4860   4.6464   5.5303   9.3679  10.3211

          k =-0.3330-0.6661 0.8326 (  6452 PWs)   bands (ev):

   -17.3095 -17.3010 -17.2458 -17.2011 -17.1816 -17.1506 -17.1147 -17.0969
   -17.0379 -17.0295  -2.7596   0.6237   4.2533   5.3542   9.3498  10.9747

          k =-0.2498-0.5828 0.7494 (  6465 PWs)   bands (ev):

   -17.3128 -17.3027 -17.2376 -17.1948 -17.1845 -17.1446 -17.1240 -17.1051
   -17.0354 -17.0259  -2.3836   0.0784   4.0084   5.3386   9.3536  11.1131

          k =-0.1665-0.4996 0.6661 (  6473 PWs)   bands (ev):

   -17.3124 -17.3033 -17.2360 -17.1986 -17.1851 -17.1399 -17.1236 -17.1077
   -17.0346 -17.0267  -2.4866   0.2229   3.9321   5.4875   9.4375  11.0954

          k =-0.0833-0.4163 0.5828 (  6469 PWs)   bands (ev):

   -17.3082 -17.3027 -17.2419 -17.2082 -17.1869 -17.1393 -17.1095 -17.1053
   -17.0356 -17.0318  -2.9502   0.9195   4.0704   5.7672   9.5708  10.9879

          k =-0.0000-0.3330 0.4996 (  6467 PWs)   bands (ev):

   -17.3009 -17.3004 -17.2533 -17.2163 -17.1950 -17.1334 -17.1017 -17.0915
   -17.0411 -17.0380  -3.4490   1.7677   4.4986   6.1064   9.6244  10.4835

          k = 0.6661 0.1665 0.0000 (  6445 PWs)   bands (ev):

   -17.3012 -17.3006 -17.2611 -17.2003 -17.1709 -17.1671 -17.1123 -17.0784
   -17.0393 -17.0381  -3.0241   1.1683   4.7053   5.0932   8.7864   9.7026

          k =-0.2498-0.7494 0.9159 (  6460 PWs)   bands (ev):

   -17.3089 -17.3034 -17.2460 -17.1905 -17.1774 -17.1596 -17.1231 -17.0941
   -17.0350 -17.0296  -2.5180   0.4333   4.1914   4.9079   9.0934  10.2086

          k =-0.1665-0.6661 0.8326 (  6469 PWs)   bands (ev):

   -17.3148 -17.3050 -17.2332 -17.1822 -17.1745 -17.1600 -17.1340 -17.1069
   -17.0325 -17.0234  -2.0532  -0.1511   3.7456   4.9099   9.1917  11.3978

          k =-0.0833-0.5828 0.7494 (  6473 PWs)   bands (ev):

   -17.3167 -17.3058 -17.2283 -17.1814 -17.1693 -17.1603 -17.1400 -17.1115
   -17.0315 -17.0215  -2.0161  -0.1901   3.5136   5.0843   9.3468  12.1186

          k =-0.0000-0.4996 0.6661 (  6468 PWs)   bands (ev):

   -17.3142 -17.3052 -17.2314 -17.1954 -17.1754 -17.1497 -17.1289 -17.1102
   -17.0323 -17.0247  -2.4468   0.3208   3.5951   5.3932   9.5496  11.8392

          k =-0.1665-0.8326 0.9991 (  6466 PWs)   bands (ev):

   -17.3053 -17.3052 -17.2460 -17.1992 -17.1789 -17.1404 -17.1330 -17.0938
   -17.0323 -17.0323  -2.1577  -0.0245   4.4396   4.6297   8.6671   9.1677

          k =-0.0833-0.7494 0.9159 (  6483 PWs)   bands (ev):

   -17.3121 -17.3064 -17.2299 -17.2013 -17.1685 -17.1448 -17.1370 -17.1097
   -17.0306 -17.0253  -1.6402  -0.5938   3.9506   4.5867   8.9369   9.9676

          k =-0.0000-0.6661 0.8326 (  6473 PWs)   bands (ev):

   -17.3166 -17.3067 -17.2252 -17.1854 -17.1656 -17.1506 -17.1503 -17.1141
   -17.0303 -17.0211  -1.5611  -0.6560   3.5537   4.7644   9.1064  11.3761

          k =-0.9991 0.1665 0.0000 (  6484 PWs)   bands (ev):

   -17.3068 -17.3068 -17.2249 -17.2249 -17.1558 -17.1558 -17.1153 -17.1153
   -17.0299 -17.0299  -1.1465  -1.1465   4.4114   4.4114   8.7953   8.7953

          k =-0.3330-0.6661 0.9991 (  6453 PWs)   bands (ev):

   -17.3077 -17.3049 -17.2435 -17.2008 -17.1736 -17.1592 -17.1148 -17.0988
   -17.0334 -17.0319  -2.7968   0.8024   4.0796   5.2167  10.1472  10.3033

          k =-0.2498-0.5828 0.9159 (  6481 PWs)   bands (ev):

   -17.3134 -17.3069 -17.2306 -17.1913 -17.1692 -17.1616 -17.1278 -17.1101
   -17.0310 -17.0250  -2.2896   0.1359   3.7599   4.9352  10.2074  10.9434

          k =-0.1665-0.4996 0.8326 (  6480 PWs)   bands (ev):

   -17.3156 -17.3074 -17.2256 -17.1861 -17.1685 -17.1611 -17.1355 -17.1139
   -17.0303 -17.0226  -2.0143  -0.1999   3.6610   4.8273  10.1995  11.0056

          k =-0.1665-0.6661 0.9991 (  6480 PWs)   bands (ev):

   -17.3116 -17.3094 -17.2289 -17.1852 -17.1804 -17.1505 -17.1354 -17.1104
   -17.0283 -17.0263  -2.0033  -0.1609   3.9209   4.4938   9.9965  10.2751

          k =-0.0833-0.5828 0.9159 (  6495 PWs)   bands (ev):

   -17.3156 -17.3106 -17.2162 -17.1855 -17.1714 -17.1508 -17.1454 -17.1212
   -17.0268 -17.0221  -1.5860  -0.6019   3.6827   4.3587  10.2451  11.4414

          k = 0.0000-0.4996 0.8326 (  6492 PWs)   bands (ev):

   -17.3162 -17.3098 -17.2186 -17.1780 -17.1750 -17.1558 -17.1443 -17.1190
   -17.0277 -17.0217  -1.7881  -0.3857   3.5759   4.5510  10.4270  11.6706

          k =-0.9991 0.3330 0.0000 (  6492 PWs)   bands (ev):

   -17.3120 -17.3120 -17.2090 -17.2090 -17.1579 -17.1579 -17.1285 -17.1285
   -17.0252 -17.0252  -1.1088  -1.1088   4.0537   4.0537  10.0523  10.0523

          k =-0.9991 0.4996 0.0000 (  6476 PWs)   bands (ev):

   -17.3143 -17.3143 -17.1990 -17.1990 -17.1609 -17.1609 -17.1354 -17.1354
   -17.0232 -17.0232  -1.0894  -1.0894   3.9006   3.9006  11.4228  11.4228

     the Fermi energy is     7.3756 ev

!    total energy              =    -427.30302585 Ry
     estimated scf accuracy    <          3.4E-14 Ry
     smearing contrib. (-TS)   =      -0.00000273 Ry
     internal energy E=F+TS    =    -427.30302312 Ry

     The total energy is F=E-TS. E is the sum of the following terms:
     one-electron contribution =    -287.17310532 Ry
     hartree contribution      =     168.59452128 Ry
     xc contribution           =    -116.55063779 Ry
     ewald contribution        =    -192.17380129 Ry

     convergence has been achieved in   9 iterations

     Forces acting on atoms (cartesian axes, Ry/au):

     atom    1 type  1   force =     0.00000000    0.00000000    0.00000000
     atom    2 type  1   force =     0.00000000    0.00000000    0.00000000

     Total force =     0.000000     Total SCF correction =     0.000000


     Computing stress (Cartesian axis) and pressure

          total   stress  (Ry/bohr**3)                   (kbar)     P=      -16.42
  -0.00011159   0.00000000  -0.00000000          -16.42        0.00       -0.00
   0.00000000  -0.00011159   0.00000000            0.00      -16.42        0.00
  -0.00000000   0.00000000  -0.00011159           -0.00        0.00      -16.42


     Writing all to output data dir ./Ge.save/ :
     XML data file, charge density, pseudopotentials, collected wavefunctions
 
     init_run     :      3.59s CPU      3.66s WALL (       2 calls)
     electrons    :     96.24s CPU     97.23s WALL (       2 calls)
     forces       :      0.73s CPU      0.75s WALL (       2 calls)
     stress       :      2.85s CPU      2.89s WALL (       2 calls)

     Called by init_run:
     wfcinit      :      3.18s CPU      3.23s WALL (       2 calls)
     potinit      :      0.03s CPU      0.04s WALL (       2 calls)
     hinit0       :      0.18s CPU      0.18s WALL (       2 calls)

     Called by electrons:
     c_bands      :     83.29s CPU     84.00s WALL (      19 calls)
     sum_band     :     12.18s CPU     12.31s WALL (      19 calls)
     v_of_rho     :      0.25s CPU      0.29s WALL (      20 calls)
     newd         :      0.58s CPU      0.65s WALL (      20 calls)
     mix_rho      :      0.03s CPU      0.03s WALL (      19 calls)

     Called by c_bands:
     init_us_2    :      0.81s CPU      0.84s WALL (    3168 calls)
     cegterg      :     79.47s CPU     79.95s WALL (    1368 calls)

     Called by *egterg:
     cdiaghg      :      1.01s CPU      1.01s WALL (    5141 calls)
     h_psi        :     64.42s CPU     64.85s WALL (    5357 calls)
     s_psi        :      3.56s CPU      3.59s WALL (    5357 calls)
     g_psi        :      0.10s CPU      0.10s WALL (    3845 calls)

     Called by h_psi:
     h_psi:calbec :      4.46s CPU      4.49s WALL (    5357 calls)
     vloc_psi     :     56.15s CPU     56.52s WALL (    5357 calls)
                                        0.00s GPU  (    5357 calls)
     add_vuspsi   :      3.64s CPU      3.66s WALL (    5357 calls)

     General routines
     calbec       :      8.38s CPU      8.41s WALL (    9173 calls)
     fft          :      0.24s CPU      0.25s WALL (     271 calls)
     ffts         :      0.01s CPU      0.01s WALL (      19 calls)
     fftw         :     60.70s CPU     61.07s WALL (  150194 calls)
 
     Parallel routines
 
     PWSCF        :   1m43.53s CPU   1m45.10s WALL

 
   This run was terminated on:  13:50:18   4Mar2026            

=------------------------------------------------------------------------------=
   JOB DONE.
=------------------------------------------------------------------------------=
