
     Program PWSCF v.7.5 starts on  4Mar2026 at 13:48:23 

     This program is part of the open-source Quantum ESPRESSO suite
     for quantum simulation of materials; please cite
         "P. Giannozzi et al., J. Phys.:Condens. Matter 21 395502 (2009);
         "P. Giannozzi et al., J. Phys.:Condens. Matter 29 465901 (2017);
         "P. Giannozzi et al., J. Chem. Phys. 152 154105 (2020);
          URL http://www.quantum-espresso.org", 
     in publications or presentations arising from this work. More details at
     http://www.quantum-espresso.org/quote

     Parallel version (MPI), running on     4 processors

     MPI processes distributed on     1 nodes
     465956 MiB available memory on the printing compute node when the environment starts
 
     Waiting for input...
     Reading input from standard input

     Current dimensions of program PWSCF are:
     Max number of different atomic species (ntypx) = 10
     Max number of k-points (npk) =  40000
     Max angular momentum in pseudopotentials (lmaxx) =  4
     Message from routine setup:
     using ibrav=0 with symmetry is DISCOURAGED, use correct ibrav instead
 
     R & G space division:  proc/nbgrp/npool/nimage =       4
     Subspace diagonalization in iterative solution of the eigenvalue problem:
     a serial algorithm will be used

 
     Parallelization info
     --------------------
     sticks:   dense  smooth     PW     G-vecs:    dense   smooth      PW
     Min         430     430    124                11794    11794    1845
     Max         431     431    125                11797    11797    1849
     Sum        1723    1723    499                47183    47183    7391
 
     Using Slab Decomposition
 


     bravais-lattice index     =            0
     lattice parameter (alat)  =      10.6526  a.u.
     unit-cell volume          =     302.9855 (a.u.)^3
     number of atoms/cell      =            2
     number of atomic types    =            1
     number of electrons       =        28.00
     number of Kohn-Sham states=           16
     kinetic-energy cutoff     =     110.0000  Ry
     charge density cutoff     =     440.0000  Ry
     scf convergence threshold =      1.0E-12
     mixing beta               =       0.7000
     number of iterations used =            8  plain     mixing
     energy convergence thresh.=      1.0E-04
     force convergence thresh. =      1.0E-03
     press convergence thresh. =      5.0E-01
     Exchange-correlation=  SLA  PW   PBX  PBC
                           (   1   4   3   4   0   0   0)
     nstep                     =           50


     celldm(1)=  10.652600  celldm(2)=   0.000000  celldm(3)=   0.000000
     celldm(4)=   0.000000  celldm(5)=   0.000000  celldm(6)=   0.000000

     crystal axes: (cart. coord. in units of alat)
               a(1) = (   0.000000   0.500428   0.500428 )  
               a(2) = (   0.500428   0.000000   0.500428 )  
               a(3) = (   0.500428   0.500428   0.000000 )  

     reciprocal axes: (cart. coord. in units 2 pi/alat)
               b(1) = ( -0.999145  0.999145  0.999145 )  
               b(2) = (  0.999145 -0.999145  0.999145 )  
               b(3) = (  0.999145  0.999145 -0.999145 )  


     PseudoPot. # 1 for Ge read from file:
     ./ge_pbe_v1.4.uspp.F.UPF
     MD5 check sum: 9c9eaa91e581c3f09632fb3098b2c6b2
     Pseudo is Ultrasoft + core correction, Zval = 14.0
     Generated by new atomic code, or converted to UPF format
     Using radial grid of  873 points,  6 beta functions with: 
                l(1) =   0
                l(2) =   0
                l(3) =   1
                l(4) =   1
                l(5) =   2
                l(6) =   2
     Q(r) pseudized with  8 coefficients,  rinner =    1.400   1.400   1.400
                                                       1.400   1.400

     atomic species   valence    mass     pseudopotential
     Ge               14.00    72.63000     Ge( 1.00)

     48 Sym. Ops., with inversion, found (24 have fractional translation)



   Cartesian axes

     site n.     atom                  positions (alat units)
         1        Ge     tau(   1) = (   0.0000000   0.0000000   0.0000000  )
         2        Ge     tau(   2) = (   0.2502140   0.2502140   0.2502140  )

     number of k points=    72  Gaussian smearing, width (Ry)=  0.0020
                       cart. coord. in units 2pi/alat
        k(    1) = (   0.0000000   0.0000000   0.0000000), wk =   0.0011574
        k(    2) = (   0.0832620   0.0832620  -0.0832620), wk =   0.0092593
        k(    3) = (   0.1665241   0.1665241  -0.1665241), wk =   0.0092593
        k(    4) = (   0.2497861   0.2497861  -0.2497861), wk =   0.0092593
        k(    5) = (   0.3330482   0.3330482  -0.3330482), wk =   0.0092593
        k(    6) = (   0.4163102   0.4163102  -0.4163102), wk =   0.0092593
        k(    7) = (  -0.4995723  -0.4995723   0.4995723), wk =   0.0046296
        k(    8) = (   0.1665241   0.0000000   0.0000000), wk =   0.0069444
        k(    9) = (   0.2497861   0.0832620  -0.0832620), wk =   0.0277778
        k(   10) = (   0.3330482   0.1665241  -0.1665241), wk =   0.0277778
        k(   11) = (   0.4163102   0.2497861  -0.2497861), wk =   0.0277778
        k(   12) = (   0.4995723   0.3330482  -0.3330482), wk =   0.0277778
        k(   13) = (  -0.4163102  -0.5828343   0.5828343), wk =   0.0277778
        k(   14) = (  -0.3330482  -0.4995723   0.4995723), wk =   0.0277778
        k(   15) = (  -0.2497861  -0.4163102   0.4163102), wk =   0.0277778
        k(   16) = (  -0.1665241  -0.3330482   0.3330482), wk =   0.0277778
        k(   17) = (  -0.0832620  -0.2497861   0.2497861), wk =   0.0277778
        k(   18) = (  -0.0000000  -0.1665241   0.1665241), wk =   0.0138889
        k(   19) = (   0.3330482   0.0000000   0.0000000), wk =   0.0069444
        k(   20) = (   0.4163102   0.0832620  -0.0832620), wk =   0.0277778
        k(   21) = (   0.4995723   0.1665241  -0.1665241), wk =   0.0277778
        k(   22) = (   0.5828343   0.2497861  -0.2497861), wk =   0.0277778
        k(   23) = (  -0.3330482  -0.6660964   0.6660964), wk =   0.0277778
        k(   24) = (  -0.2497861  -0.5828343   0.5828343), wk =   0.0277778
        k(   25) = (  -0.1665241  -0.4995723   0.4995723), wk =   0.0277778
        k(   26) = (  -0.0832620  -0.4163102   0.4163102), wk =   0.0277778
        k(   27) = (  -0.0000000  -0.3330482   0.3330482), wk =   0.0138889
        k(   28) = (   0.4995723   0.0000000   0.0000000), wk =   0.0069444
        k(   29) = (   0.5828343   0.0832620  -0.0832620), wk =   0.0277778
        k(   30) = (   0.6660964   0.1665241  -0.1665241), wk =   0.0277778
        k(   31) = (  -0.2497861  -0.7493584   0.7493584), wk =   0.0277778
        k(   32) = (  -0.1665241  -0.6660964   0.6660964), wk =   0.0277778
        k(   33) = (  -0.0832620  -0.5828343   0.5828343), wk =   0.0277778
        k(   34) = (   0.0000000  -0.4995723   0.4995723), wk =   0.0138889
        k(   35) = (   0.6660964   0.0000000   0.0000000), wk =   0.0069444
        k(   36) = (   0.7493584   0.0832620  -0.0832620), wk =   0.0277778
        k(   37) = (  -0.1665241  -0.8326205   0.8326205), wk =   0.0277778
        k(   38) = (  -0.0832620  -0.7493584   0.7493584), wk =   0.0277778
        k(   39) = (  -0.0000000  -0.6660964   0.6660964), wk =   0.0138889
        k(   40) = (   0.8326205   0.0000000   0.0000000), wk =   0.0069444
        k(   41) = (  -0.0832620  -0.9158825   0.9158825), wk =   0.0277778
        k(   42) = (  -0.0000000  -0.8326205   0.8326205), wk =   0.0138889
        k(   43) = (  -0.9991446   0.0000000   0.0000000), wk =   0.0034722
        k(   44) = (   0.3330482   0.1665241  -0.0000000), wk =   0.0277778
        k(   45) = (   0.4163102   0.2497861  -0.0832620), wk =   0.0555556
        k(   46) = (   0.4995723   0.3330482  -0.1665241), wk =   0.0555556
        k(   47) = (  -0.4163102  -0.5828343   0.7493584), wk =   0.0555556
        k(   48) = (  -0.3330482  -0.4995723   0.6660964), wk =   0.0277778
        k(   49) = (   0.4995723   0.1665241   0.0000000), wk =   0.0277778
        k(   50) = (   0.5828343   0.2497861  -0.0832620), wk =   0.0555556
        k(   51) = (  -0.3330482  -0.6660964   0.8326205), wk =   0.0555556
        k(   52) = (  -0.2497861  -0.5828343   0.7493584), wk =   0.0555556
        k(   53) = (  -0.1665241  -0.4995723   0.6660964), wk =   0.0555556
        k(   54) = (  -0.0832620  -0.4163102   0.5828343), wk =   0.0555556
        k(   55) = (  -0.0000000  -0.3330482   0.4995723), wk =   0.0277778
        k(   56) = (   0.6660964   0.1665241   0.0000000), wk =   0.0277778
        k(   57) = (  -0.2497861  -0.7493584   0.9158825), wk =   0.0555556
        k(   58) = (  -0.1665241  -0.6660964   0.8326205), wk =   0.0555556
        k(   59) = (  -0.0832620  -0.5828343   0.7493584), wk =   0.0555556
        k(   60) = (  -0.0000000  -0.4995723   0.6660964), wk =   0.0277778
        k(   61) = (  -0.1665241  -0.8326205   0.9991446), wk =   0.0277778
        k(   62) = (  -0.0832620  -0.7493584   0.9158825), wk =   0.0555556
        k(   63) = (  -0.0000000  -0.6660964   0.8326205), wk =   0.0277778
        k(   64) = (  -0.9991446   0.1665241   0.0000000), wk =   0.0138889
        k(   65) = (  -0.3330482  -0.6660964   0.9991446), wk =   0.0277778
        k(   66) = (  -0.2497861  -0.5828343   0.9158825), wk =   0.0555556
        k(   67) = (  -0.1665241  -0.4995723   0.8326205), wk =   0.0277778
        k(   68) = (  -0.1665241  -0.6660964   0.9991446), wk =   0.0277778
        k(   69) = (  -0.0832620  -0.5828343   0.9158825), wk =   0.0555556
        k(   70) = (   0.0000000  -0.4995723   0.8326205), wk =   0.0277778
        k(   71) = (  -0.9991446   0.3330482   0.0000000), wk =   0.0138889
        k(   72) = (  -0.9991446   0.4995723   0.0000000), wk =   0.0069444

     Dense  grid:    47183 G-vectors     FFT dimensions: (  60,  60,  60)

     Estimated max dynamical RAM per process >      75.26 MB

     Estimated total dynamical RAM >     301.04 MB

     Check: negative core charge=   -0.000001

     Initial potential from superposition of free atoms

     starting charge      27.9983, renormalised to      28.0000
     Starting wfcs are   18 randomized atomic wfcs

     total cpu time spent up to now is        2.1 secs

     Self-consistent Calculation

     iteration #  1     ecut=   110.00 Ry     beta= 0.70
     Davidson diagonalization with overlap
     ethr =  1.00E-02,  avg # of iterations =  2.4

     Threshold (ethr) on eigenvalues was too large:
     Diagonalizing with lowered threshold

     Davidson diagonalization with overlap
     ethr =  1.15E-04,  avg # of iterations =  2.8

     total cpu time spent up to now is       10.6 secs

     total energy              =    -427.29989831 Ry
     estimated scf accuracy    <       0.03442485 Ry

     iteration #  2     ecut=   110.00 Ry     beta= 0.70
     Davidson diagonalization with overlap
     ethr =  1.23E-04,  avg # of iterations =  1.0

     total cpu time spent up to now is       14.2 secs

     total energy              =    -427.30082788 Ry
     estimated scf accuracy    <       0.00182847 Ry

     iteration #  3     ecut=   110.00 Ry     beta= 0.70
     Davidson diagonalization with overlap
     ethr =  6.53E-06,  avg # of iterations =  3.2

     total cpu time spent up to now is       18.6 secs

     total energy              =    -427.30092941 Ry
     estimated scf accuracy    <       0.00002412 Ry

     iteration #  4     ecut=   110.00 Ry     beta= 0.70
     Davidson diagonalization with overlap
     ethr =  8.61E-08,  avg # of iterations =  2.6

     total cpu time spent up to now is       24.0 secs

     total energy              =    -427.30093873 Ry
     estimated scf accuracy    <       0.00000251 Ry

     iteration #  5     ecut=   110.00 Ry     beta= 0.70
     Davidson diagonalization with overlap
     ethr =  8.95E-09,  avg # of iterations =  2.0

     total cpu time spent up to now is       28.9 secs

     total energy              =    -427.30093929 Ry
     estimated scf accuracy    <       0.00000007 Ry

     iteration #  6     ecut=   110.00 Ry     beta= 0.70
     Davidson diagonalization with overlap
     ethr =  2.49E-10,  avg # of iterations =  3.2

     total cpu time spent up to now is       34.4 secs

     total energy              =    -427.30093933 Ry
     estimated scf accuracy    <          5.4E-09 Ry

     iteration #  7     ecut=   110.00 Ry     beta= 0.70
     Davidson diagonalization with overlap
     ethr =  1.94E-11,  avg # of iterations =  2.3

     total cpu time spent up to now is       39.7 secs

     total energy              =    -427.30093934 Ry
     estimated scf accuracy    <          1.5E-10 Ry

     iteration #  8     ecut=   110.00 Ry     beta= 0.70
     Davidson diagonalization with overlap
     ethr =  5.26E-13,  avg # of iterations =  3.1

     total cpu time spent up to now is       45.1 secs

     total energy              =    -427.30093934 Ry
     estimated scf accuracy    <          2.5E-12 Ry

     iteration #  9     ecut=   110.00 Ry     beta= 0.70
     Davidson diagonalization with overlap
     ethr =  1.00E-13,  avg # of iterations =  1.7

     total cpu time spent up to now is       49.3 secs

     End of self-consistent calculation

          k = 0.0000 0.0000 0.0000 (  5961 PWs)   bands (ev):

   -16.2390 -16.2390 -16.2390 -16.2028 -16.2028 -15.9869 -15.9869 -15.9869
   -15.9731 -15.9731  -4.2592   8.5774   8.5774   8.5774   8.6853  11.1332

          k = 0.0833 0.0833-0.0833 (  5919 PWs)   bands (ev):

   -16.2434 -16.2434 -16.2378 -16.1967 -16.1967 -15.9938 -15.9938 -15.9883
   -15.9670 -15.9670  -4.1736   7.0620   8.4086   8.4086   9.5900  11.3583

          k = 0.1665 0.1665-0.1665 (  5907 PWs)   bands (ev):

   -16.2512 -16.2512 -16.2346 -16.1848 -16.1848 -16.0043 -16.0043 -15.9921
   -15.9587 -15.9587  -3.9199   5.4138   8.0501   8.0501   9.5698  11.8306

          k = 0.2498 0.2498-0.2498 (  5934 PWs)   bands (ev):

   -16.2576 -16.2576 -16.2302 -16.1734 -16.1734 -16.0132 -16.0132 -15.9973
   -15.9522 -15.9522  -3.5104   3.8508   7.6864   7.6864   9.2782  12.2195

          k = 0.3330 0.3330-0.3330 (  5888 PWs)   bands (ev):

   -16.2616 -16.2616 -16.2257 -16.1653 -16.1653 -16.0189 -16.0189 -16.0026
   -15.9480 -15.9480  -2.9788   2.4676   7.3997   7.3997   9.0138  12.3607

          k = 0.4163 0.4163-0.4163 (  5909 PWs)   bands (ev):

   -16.2634 -16.2634 -16.2224 -16.1611 -16.1611 -16.0215 -16.0215 -16.0065
   -15.9458 -15.9458  -2.4272   1.3958   7.2204   7.2204   8.8440  12.3472

          k =-0.4996-0.4996 0.4996 (  5900 PWs)   bands (ev):

   -16.2639 -16.2639 -16.2211 -16.1599 -16.1599 -16.0221 -16.0221 -16.0080
   -15.9452 -15.9452  -2.1483   0.9421   7.1597   7.1597   8.7862  12.3250

          k = 0.1665 0.0000 0.0000 (  5925 PWs)   bands (ev):

   -16.2439 -16.2417 -16.2417 -16.1986 -16.1905 -16.0068 -15.9828 -15.9828
   -15.9768 -15.9621  -4.1449   7.0127   8.1033   8.1033  10.1974  10.7958

          k = 0.2498 0.0833-0.0833 (  5917 PWs)   bands (ev):

   -16.2520 -16.2469 -16.2390 -16.1906 -16.1779 -16.0205 -15.9910 -15.9824
   -15.9692 -15.9556  -3.9466   5.7707   7.7001   7.7773  10.4415  10.9063

          k = 0.3330 0.1665-0.1665 (  5913 PWs)   bands (ev):

   -16.2605 -16.2535 -16.2328 -16.1795 -16.1652 -16.0315 -16.0017 -15.9880
   -15.9602 -15.9483  -3.5870   4.2856   7.3431   7.3662  10.1764  11.4562

          k = 0.4163 0.2498-0.2498 (  5915 PWs)   bands (ev):

   -16.2666 -16.2588 -16.2252 -16.1695 -16.1563 -16.0375 -16.0109 -15.9965
   -15.9531 -15.9423  -3.0900   2.8821   6.9598   7.0933   9.8827  11.8877

          k = 0.4996 0.3330-0.3330 (  5903 PWs)   bands (ev):

   -16.2701 -16.2625 -16.2181 -16.1617 -16.1530 -16.0371 -16.0185 -16.0053
   -15.9477 -15.9388  -2.5246   1.7077   6.6367   6.9733   9.6609  12.0579

          k =-0.4163-0.5828 0.5828 (  5908 PWs)   bands (ev):

   -16.2709 -16.2650 -16.2135 -16.1562 -16.1548 -16.0310 -16.0250 -16.0125
   -15.9439 -15.9382  -2.1059   1.0078   6.4280   6.9883   9.5433  12.1490

          k =-0.3330-0.4996 0.4996 (  5902 PWs)   bands (ev):

   -16.2694 -16.2665 -16.2132 -16.1595 -16.1531 -16.0299 -16.0223 -16.0154
   -15.9417 -15.9405  -2.2060   1.1654   6.3499   7.1334   9.5399  12.2843

          k =-0.2498-0.4163 0.4163 (  5906 PWs)   bands (ev):

   -16.2664 -16.2658 -16.2174 -16.1654 -16.1540 -16.0315 -16.0193 -16.0069
   -15.9457 -15.9415  -2.7139   2.0665   6.4135   7.3943   9.6483  12.4023

          k =-0.1665-0.3330 0.3330 (  5923 PWs)   bands (ev):

   -16.2640 -16.2599 -16.2246 -16.1730 -16.1605 -16.0279 -16.0161 -15.9946
   -15.9537 -15.9439  -3.2696   3.3325   6.6292   7.7438   9.8510  12.1729

          k =-0.0833-0.2498 0.2498 (  5920 PWs)   bands (ev):

   -16.2587 -16.2522 -16.2322 -16.1824 -16.1720 -16.0191 -16.0095 -15.9833
   -15.9640 -15.9491  -3.7248   4.7616   7.0147   8.1254  10.0804  11.7717

          k =-0.0000-0.1665 0.1665 (  5923 PWs)   bands (ev):

   -16.2510 -16.2446 -16.2377 -16.1921 -16.1857 -16.0070 -16.0004 -15.9786
   -15.9721 -15.9570  -4.0317   6.1431   7.6311   8.4121  10.0554  11.3889

          k = 0.3330 0.0000 0.0000 (  5914 PWs)   bands (ev):

   -16.2487 -16.2487 -16.2485 -16.1867 -16.1642 -16.0390 -15.9878 -15.9719
   -15.9719 -15.9560  -3.8036   5.4189   7.2752   7.2752  10.1543  11.3697

          k = 0.4163 0.0833-0.0833 (  5922 PWs)   bands (ev):

   -16.2596 -16.2539 -16.2403 -16.1768 -16.1495 -16.0548 -15.9983 -15.9737
   -15.9628 -15.9502  -3.4962   4.3817   6.8153   6.9079  10.1814  11.4495

          k = 0.4996 0.1665-0.1665 (  5910 PWs)   bands (ev):

   -16.2695 -16.2593 -16.2284 -16.1656 -16.1381 -16.0650 -16.0103 -15.9857
   -15.9538 -15.9401  -3.0408   3.1518   6.2739   6.6580  10.3551  11.7256

          k = 0.5828 0.2498-0.2498 (  5896 PWs)   bands (ev):

   -16.2769 -16.2638 -16.2154 -16.1552 -16.1338 -16.0668 -16.0218 -16.0001
   -15.9464 -15.9320  -2.4838   1.9957   5.7923   6.5501  10.2816  12.2209

          k =-0.3330-0.6661 0.6661 (  5908 PWs)   bands (ev):

   -16.2809 -16.2675 -16.2043 -16.1461 -16.1375 -16.0596 -16.0327 -16.0128
   -15.9408 -15.9276  -1.9729   1.1475   5.4385   6.5908  10.2095  12.3824

          k =-0.2498-0.5828 0.5828 (  5897 PWs)   bands (ev):

   -16.2811 -16.2700 -16.1984 -16.1470 -16.1395 -16.0457 -16.0418 -16.0210
   -15.9371 -15.9279  -1.8797   1.0111   5.2420   6.7745  10.2333  12.4752

          k =-0.1665-0.4996 0.4996 (  5911 PWs)   bands (ev):

   -16.2774 -16.2710 -16.2001 -16.1583 -16.1381 -16.0462 -16.0293 -16.0222
   -15.9358 -15.9331  -2.3097   1.6905   5.2298   7.0828  10.3524  12.6407

          k =-0.0833-0.4163 0.4163 (  5916 PWs)   bands (ev):

   -16.2701 -16.2696 -16.2096 -16.1677 -16.1444 -16.0429 -16.0239 -16.0063
   -15.9429 -15.9374  -2.8757   2.7537   5.4496   7.4769  10.5153  12.6555

          k =-0.0000-0.3330 0.3330 (  5931 PWs)   bands (ev):

   -16.2654 -16.2606 -16.2225 -16.1755 -16.1570 -16.0329 -16.0181 -15.9890
   -15.9561 -15.9418  -3.3691   3.8623   6.0085   7.8766  10.5460  12.1486

          k = 0.4996 0.0000 0.0000 (  5942 PWs)   bands (ev):

   -16.2576 -16.2576 -16.2459 -16.1677 -16.1317 -16.0761 -16.0053 -15.9601
   -15.9577 -15.9577  -3.2403   3.8672   6.5209   6.5209   9.5874  11.3442

          k = 0.5828 0.0833-0.0833 (  5908 PWs)   bands (ev):

   -16.2671 -16.2622 -16.2346 -16.1559 -16.1164 -16.0923 -16.0171 -15.9749
   -15.9499 -15.9436  -2.8302   2.9818   6.0231   6.2497   9.6968  11.1568

          k = 0.6661 0.1665-0.1665 (  5902 PWs)   bands (ev):

   -16.2777 -16.2665 -16.2175 -16.1436 -16.1094 -16.0981 -16.0303 -15.9938
   -15.9427 -15.9310  -2.2965   2.0141   5.3736   6.1237   9.9324  11.6553

          k =-0.2498-0.7494 0.7494 (  5902 PWs)   bands (ev):

   -16.2855 -16.2701 -16.2010 -16.1321 -16.1121 -16.0930 -16.0437 -16.0115
   -15.9370 -15.9223  -1.7362   1.1717   4.8218   6.1530   9.9929  12.8280

          k =-0.1665-0.6661 0.6661 (  5893 PWs)   bands (ev):

   -16.2890 -16.2728 -16.1904 -16.1229 -16.1216 -16.0807 -16.0555 -16.0227
   -15.9333 -15.9187  -1.4672   0.8194   4.4731   6.3340  10.1072  13.6008

          k =-0.0833-0.5828 0.5828 (  5898 PWs)   bands (ev):

   -16.2873 -16.2740 -16.1877 -16.1397 -16.1206 -16.0610 -16.0592 -16.0260
   -15.9320 -15.9213  -1.7954   1.2564   4.3921   6.6492  10.3233  13.6826

          k = 0.0000-0.4996 0.4996 (  5913 PWs)   bands (ev):

   -16.2806 -16.2731 -16.1943 -16.1574 -16.1291 -16.0556 -16.0358 -16.0223
   -15.9333 -15.9299  -2.3568   2.0360   4.6788   7.0584  10.5595  13.3886

          k = 0.6661 0.0000 0.0000 (  5882 PWs)   bands (ev):

   -16.2658 -16.2658 -16.2345 -16.1432 -16.1150 -16.0962 -16.0284 -15.9742
   -15.9440 -15.9440  -2.4642   2.3724   5.9483   5.9483   9.2300  10.5452

          k = 0.7494 0.0833-0.0833 (  5892 PWs)   bands (ev):

   -16.2735 -16.2692 -16.2199 -16.1302 -16.1297 -16.0813 -16.0420 -15.9904
   -15.9383 -15.9341  -1.9621   1.6038   5.4797   5.7902   9.4221  10.4302

          k =-0.1665-0.8326 0.8326 (  5884 PWs)   bands (ev):

   -16.2834 -16.2721 -16.2000 -16.1341 -16.1164 -16.0757 -16.0565 -16.0115
   -15.9338 -15.9233  -1.3840   0.8647   4.8049   5.7895   9.6191  11.2515

          k =-0.0833-0.7494 0.7494 (  5889 PWs)   bands (ev):

   -16.2904 -16.2741 -16.1869 -16.1208 -16.1054 -16.0865 -16.0699 -16.0248
   -15.9310 -15.9163  -0.9854   0.4263   4.2737   5.9457   9.7637  12.7060

          k =-0.0000-0.6661 0.6661 (  5902 PWs)   bands (ev):

   -16.2919 -16.2749 -16.1840 -16.1122 -16.1060 -16.0922 -16.0723 -16.0275
   -15.9304 -15.9154  -1.2484   0.7181   4.0848   6.2443  10.0175  14.3755

          k = 0.8326 0.0000 0.0000 (  5886 PWs)   bands (ev):

   -16.2715 -16.2715 -16.2146 -16.1528 -16.1150 -16.0603 -16.0556 -15.9969
   -15.9343 -15.9343  -1.4902   0.9591   5.5944   5.5944   9.1326   9.8012

          k =-0.0833-0.9159 0.9159 (  5890 PWs)   bands (ev):

   -16.2772 -16.2732 -16.1969 -16.1652 -16.1005 -16.0705 -16.0473 -16.0152
   -15.9316 -15.9281  -0.9139   0.2923   5.2053   5.5553   9.3618   9.9267

          k =-0.0000-0.8326 0.8326 (  5886 PWs)   bands (ev):

   -16.2855 -16.2741 -16.1854 -16.1539 -16.0906 -16.0820 -16.0561 -16.0269
   -15.9305 -15.9203  -0.5259  -0.0751   4.6131   5.6760   9.5090  11.0938

          k =-0.9991 0.0000 0.0000 (  5874 PWs)   bands (ev):

   -16.2735 -16.2735 -16.1868 -16.1868 -16.0851 -16.0851 -16.0263 -16.0263
   -15.9309 -15.9309  -0.3396  -0.3396   5.4750   5.4750   9.3200   9.3200

          k = 0.3330 0.1665-0.0000 (  5910 PWs)   bands (ev):

   -16.2586 -16.2521 -16.2358 -16.1829 -16.1642 -16.0354 -15.9991 -15.9774
   -15.9674 -15.9494  -3.6942   4.8572   6.8109   7.6945  10.8287  10.8944

          k = 0.4163 0.2498-0.0833 (  5923 PWs)   bands (ev):

   -16.2659 -16.2598 -16.2259 -16.1730 -16.1512 -16.0468 -16.0087 -15.9891
   -15.9553 -15.9424  -3.2863   3.6438   6.1941   7.3997  10.7031  11.4622

          k = 0.4996 0.3330-0.1665 (  5914 PWs)   bands (ev):

   -16.2723 -16.2653 -16.2146 -16.1637 -16.1428 -16.0520 -16.0166 -16.0042
   -15.9457 -15.9366  -2.7555   2.4113   5.8362   7.0633  10.4863  11.9205

          k =-0.4163-0.5828 0.7494 (  5898 PWs)   bands (ev):

   -16.2769 -16.2681 -16.2057 -16.1554 -16.1414 -16.0497 -16.0252 -16.0161
   -15.9406 -15.9322  -2.2008   1.4007   5.6511   6.8191  10.3320  12.0130

          k =-0.3330-0.4996 0.6661 (  5894 PWs)   bands (ev):

   -16.2785 -16.2688 -16.2023 -16.1500 -16.1438 -16.0443 -16.0337 -16.0191
   -15.9390 -15.9305  -1.9165   0.9599   5.5945   6.7308  10.2778  12.0053

          k = 0.4996 0.1665 0.0000 (  5921 PWs)   bands (ev):

   -16.2650 -16.2614 -16.2324 -16.1667 -16.1343 -16.0709 -16.0082 -15.9798
   -15.9531 -15.9446  -3.1384   3.5377   6.0792   6.7493  10.2681  11.4655

          k = 0.5828 0.2498-0.0833 (  5902 PWs)   bands (ev):

   -16.2739 -16.2673 -16.2176 -16.1556 -16.1230 -16.0809 -16.0200 -15.9958
   -15.9434 -15.9353  -2.6430   2.5287   5.4926   6.4669  10.5779  11.7824

          k =-0.3330-0.6661 0.8326 (  5901 PWs)   bands (ev):

   -16.2818 -16.2707 -16.2024 -16.1450 -16.1197 -16.0813 -16.0327 -16.0120
   -15.9376 -15.9266  -2.0742   1.5600   5.0797   6.2662  10.6193  12.4096

          k =-0.2498-0.5828 0.7494 (  5897 PWs)   bands (ev):

   -16.2860 -16.2728 -16.1921 -16.1371 -16.1236 -16.0734 -16.0450 -16.0222
   -15.9342 -15.9220  -1.6464   0.9388   4.8179   6.2480  10.6649  12.4107

          k =-0.1665-0.4996 0.6661 (  5897 PWs)   bands (ev):

   -16.2853 -16.2738 -16.1899 -16.1421 -16.1241 -16.0671 -16.0451 -16.0253
   -15.9330 -15.9231  -1.7633   1.1033   4.7253   6.4158  10.8000  12.3361

          k =-0.0833-0.4163 0.5828 (  5906 PWs)   bands (ev):

   -16.2799 -16.2732 -16.1971 -16.1544 -16.1263 -16.0665 -16.0267 -16.0230
   -15.9341 -15.9298  -2.2852   1.8901   4.8573   6.7304  10.9962  12.2420

          k =-0.0000-0.3330 0.4996 (  5912 PWs)   bands (ev):

   -16.2706 -16.2706 -16.2113 -16.1646 -16.1366 -16.0594 -16.0171 -16.0051
   -15.9422 -15.9368  -2.8382   2.8276   5.3149   7.1127  11.1265  11.7421

          k = 0.6661 0.1665 0.0000 (  5906 PWs)   bands (ev):

   -16.2711 -16.2700 -16.2224 -16.1435 -16.1083 -16.1010 -16.0295 -15.9879
   -15.9397 -15.9377  -2.3759   2.2139   5.5471   5.9771   9.8936  10.9523

          k =-0.2498-0.7494 0.9159 (  5898 PWs)   bands (ev):

   -16.2809 -16.2736 -16.2032 -16.1309 -16.1163 -16.0914 -16.0435 -16.0080
   -15.9338 -15.9268  -1.8161   1.4048   4.9779   5.7683  10.2412  11.4908

          k =-0.1665-0.6661 0.8326 (  5890 PWs)   bands (ev):

   -16.2884 -16.2757 -16.1870 -16.1207 -16.1119 -16.0921 -16.0578 -16.0242
   -15.9305 -15.9187  -1.2934   0.7514   4.4829   5.7713  10.3703  12.8082

          k =-0.0833-0.5828 0.7494 (  5893 PWs)   bands (ev):

   -16.2909 -16.2768 -16.1806 -16.1197 -16.1037 -16.0937 -16.0661 -16.0300
   -15.9291 -15.9164  -1.2458   0.7021   4.2212   5.9665  10.5702  13.5711

          k =-0.0000-0.4996 0.6661 (  5903 PWs)   bands (ev):

   -16.2877 -16.2763 -16.1841 -16.1379 -16.1113 -16.0799 -16.0524 -16.0283
   -15.9299 -15.9206  -1.7271   1.2632   4.3103   6.3110  10.8508  13.2224

          k =-0.1665-0.8326 0.9991 (  5892 PWs)   bands (ev):

   -16.2759 -16.2757 -16.2037 -16.1446 -16.1157 -16.0668 -16.0563 -16.0073
   -15.9305 -15.9303  -1.4254   0.9139   5.2542   5.4613   9.7606  10.3091

          k =-0.0833-0.7494 0.9159 (  5891 PWs)   bands (ev):

   -16.2848 -16.2773 -16.1832 -16.1468 -16.1023 -16.0717 -16.0625 -16.0277
   -15.9281 -15.9213  -0.8501   0.2904   4.6994   5.4145  10.0608  11.1840

          k =-0.0000-0.6661 0.8326 (  5885 PWs)   bands (ev):

   -16.2907 -16.2778 -16.1771 -16.1259 -16.0987 -16.0796 -16.0795 -16.0331
   -15.9275 -15.9158  -0.7480   0.2115   4.2523   5.6118  10.2635  12.7270

          k =-0.9991 0.1665 0.0000 (  5892 PWs)   bands (ev):

   -16.2777 -16.2777 -16.1771 -16.1771 -16.0858 -16.0858 -16.0347 -16.0347
   -15.9273 -15.9273  -0.3155  -0.3155   5.2214   5.2214   9.8964   9.8964

          k =-0.3330-0.6661 0.9991 (  5919 PWs)   bands (ev):

   -16.2791 -16.2761 -16.1994 -16.1445 -16.1092 -16.0928 -16.0329 -16.0145
   -15.9313 -15.9300  -2.1203   1.7993   4.8514   6.1112  11.3766  11.8018

          k =-0.2498-0.5828 0.9159 (  5894 PWs)   bands (ev):

   -16.2866 -16.2784 -16.1832 -16.1325 -16.1040 -16.0951 -16.0502 -16.0284
   -15.9284 -15.9209  -1.5550   1.0652   4.5016   5.7929  11.6014  12.2465

          k =-0.1665-0.4996 0.8326 (  5888 PWs)   bands (ev):

   -16.2895 -16.2790 -16.1769 -16.1260 -16.1027 -16.0945 -16.0602 -16.0330
   -15.9275 -15.9177  -1.2432   0.6865   4.3967   5.6709  11.6264  12.1985

          k =-0.1665-0.6661 0.9991 (  5897 PWs)   bands (ev):

   -16.2841 -16.2815 -16.1813 -16.1260 -16.1181 -16.0797 -16.0596 -16.0287
   -15.9249 -15.9226  -1.2469   0.7655   4.6708   5.2986  11.2142  11.5760

          k =-0.0833-0.5828 0.9159 (  5901 PWs)   bands (ev):

   -16.2893 -16.2829 -16.1652 -16.1261 -16.1067 -16.0801 -16.0729 -16.0422
   -15.9231 -15.9171  -0.7797   0.2814   4.3989   5.1484  11.5282  12.8677

          k = 0.0000-0.4996 0.8326 (  5904 PWs)   bands (ev):

   -16.2901 -16.2821 -16.1681 -16.1153 -16.1125 -16.0863 -16.0717 -16.0394
   -15.9241 -15.9166  -1.0004   0.5138   4.2806   5.3635  11.7827  13.0640

          k =-0.9991 0.3330 0.0000 (  5888 PWs)   bands (ev):

   -16.2847 -16.2847 -16.1563 -16.1563 -16.0889 -16.0889 -16.0516 -16.0516
   -15.9211 -15.9211  -0.2654  -0.2654   4.8114   4.8114  11.2843  11.2843

          k =-0.9991 0.4996 0.0000 (  5876 PWs)   bands (ev):

   -16.2877 -16.2877 -16.1432 -16.1432 -16.0932 -16.0932 -16.0602 -16.0602
   -15.9184 -15.9184  -0.2393  -0.2393   4.6361   4.6361  12.9354  12.9355

     the Fermi energy is     8.6347 ev

!    total energy              =    -427.30093934 Ry
     estimated scf accuracy    <          1.8E-13 Ry
     smearing contrib. (-TS)   =      -0.00000004 Ry
     internal energy E=F+TS    =    -427.30093929 Ry

     The total energy is F=E-TS. E is the sum of the following terms:
     one-electron contribution =    -277.41220802 Ry
     hartree contribution      =     164.81454984 Ry
     xc contribution           =    -116.64660835 Ry
     ewald contribution        =    -198.05667275 Ry

     convergence has been achieved in   9 iterations

     Forces acting on atoms (cartesian axes, Ry/au):

     atom    1 type  1   force =     0.00000000   -0.00000000   -0.00000000
     atom    2 type  1   force =    -0.00000000    0.00000000    0.00000000

     Total force =     0.000000     Total SCF correction =     0.000000


     Computing stress (Cartesian axis) and pressure

          total   stress  (Ry/bohr**3)                   (kbar)     P=       41.52
   0.00028223   0.00000000   0.00000000           41.52        0.00        0.00
   0.00000000   0.00028223   0.00000000            0.00       41.52        0.00
   0.00000000   0.00000000   0.00028223            0.00        0.00       41.52

     Volume is kept fixed: isostatic pressure set to zero

     BFGS Geometry Optimization
     Energy error            =      1.2E-60 Ry
     Gradient error          =      5.3E-31 Ry/Bohr
     Cell gradient error     =      0.0E+00 kbar

     bfgs converged in   1 scf cycles and   0 bfgs steps
     (criteria: energy <  1.0E-04 Ry, force <  1.0E-03 Ry/Bohr, cell <  5.0E-01 kbar)

     End of BFGS Geometry Optimization

     Final enthalpy           =    -427.3009393358 Ry
Begin final coordinates
     new unit-cell volume =    302.98551 a.u.^3 (    44.89782 Ang^3 )
     density =      5.37242 g/cm^3

CELL_PARAMETERS (alat= 10.65260000)
   0.000000000   0.500428075   0.500428075
   0.500428075   0.000000000   0.500428075
   0.500428075   0.500428075   0.000000000

ATOMIC_POSITIONS (alat)
Ge               0.0000000000        0.0000000000        0.0000000000
Ge               0.2502140375        0.2502140375        0.2502140375
End final coordinates



     Writing config-only to output data dir ./Ge.save/ :
     XML data file

     Final scf calculation at the relaxed structure.
     The G-vectors are recalculated for the final unit cell
     Results may differ from those at the preceding step.
 
     Parallelization info
     --------------------
     sticks:   dense  smooth     PW     G-vecs:    dense   smooth      PW
     Min         430     430    124                11794    11794    1845
     Max         431     431    125                11797    11797    1849
     Sum        1723    1723    499                47183    47183    7391
 
     Using Slab Decomposition
 


     bravais-lattice index     =            0
     lattice parameter (alat)  =      10.6526  a.u.
     unit-cell volume          =     302.9855 (a.u.)^3
     number of atoms/cell      =            2
     number of atomic types    =            1
     number of electrons       =        28.00
     number of Kohn-Sham states=           16
     kinetic-energy cutoff     =     110.0000  Ry
     charge density cutoff     =     440.0000  Ry
     scf convergence threshold =      1.0E-12
     mixing beta               =       0.7000
     number of iterations used =            8  plain     mixing
     press convergence thresh. =      5.0E-01
     Exchange-correlation=  SLA  PW   PBX  PBC
                           (   1   4   3   4   0   0   0)

     celldm(1)=  10.652600  celldm(2)=   0.000000  celldm(3)=   0.000000
     celldm(4)=   0.000000  celldm(5)=   0.000000  celldm(6)=   0.000000

     crystal axes: (cart. coord. in units of alat)
               a(1) = (   0.000000   0.500428   0.500428 )  
               a(2) = (   0.500428   0.000000   0.500428 )  
               a(3) = (   0.500428   0.500428   0.000000 )  

     reciprocal axes: (cart. coord. in units 2 pi/alat)
               b(1) = ( -0.999145  0.999145  0.999145 )  
               b(2) = (  0.999145 -0.999145  0.999145 )  
               b(3) = (  0.999145  0.999145 -0.999145 )  


     PseudoPot. # 1 for Ge read from file:
     ./ge_pbe_v1.4.uspp.F.UPF
     MD5 check sum: 9c9eaa91e581c3f09632fb3098b2c6b2
     Pseudo is Ultrasoft + core correction, Zval = 14.0
     Generated by new atomic code, or converted to UPF format
     Using radial grid of  873 points,  6 beta functions with: 
                l(1) =   0
                l(2) =   0
                l(3) =   1
                l(4) =   1
                l(5) =   2
                l(6) =   2
     Q(r) pseudized with  8 coefficients,  rinner =    1.400   1.400   1.400
                                                       1.400   1.400

     atomic species   valence    mass     pseudopotential
     Ge               14.00    72.63000     Ge( 1.00)

     48 Sym. Ops., with inversion, found (24 have fractional translation)



   Cartesian axes

     site n.     atom                  positions (alat units)
         1        Ge     tau(   1) = (   0.0000000   0.0000000   0.0000000  )
         2        Ge     tau(   2) = (   0.2502140   0.2502140   0.2502140  )

     number of k points=    72  Gaussian smearing, width (Ry)=  0.0020
                       cart. coord. in units 2pi/alat
        k(    1) = (   0.0000000   0.0000000   0.0000000), wk =   0.0011574
        k(    2) = (   0.0832620   0.0832620  -0.0832620), wk =   0.0092593
        k(    3) = (   0.1665241   0.1665241  -0.1665241), wk =   0.0092593
        k(    4) = (   0.2497861   0.2497861  -0.2497861), wk =   0.0092593
        k(    5) = (   0.3330482   0.3330482  -0.3330482), wk =   0.0092593
        k(    6) = (   0.4163102   0.4163102  -0.4163102), wk =   0.0092593
        k(    7) = (  -0.4995723  -0.4995723   0.4995723), wk =   0.0046296
        k(    8) = (   0.1665241   0.0000000   0.0000000), wk =   0.0069444
        k(    9) = (   0.2497861   0.0832620  -0.0832620), wk =   0.0277778
        k(   10) = (   0.3330482   0.1665241  -0.1665241), wk =   0.0277778
        k(   11) = (   0.4163102   0.2497861  -0.2497861), wk =   0.0277778
        k(   12) = (   0.4995723   0.3330482  -0.3330482), wk =   0.0277778
        k(   13) = (  -0.4163102  -0.5828343   0.5828343), wk =   0.0277778
        k(   14) = (  -0.3330482  -0.4995723   0.4995723), wk =   0.0277778
        k(   15) = (  -0.2497861  -0.4163102   0.4163102), wk =   0.0277778
        k(   16) = (  -0.1665241  -0.3330482   0.3330482), wk =   0.0277778
        k(   17) = (  -0.0832620  -0.2497861   0.2497861), wk =   0.0277778
        k(   18) = (  -0.0000000  -0.1665241   0.1665241), wk =   0.0138889
        k(   19) = (   0.3330482   0.0000000   0.0000000), wk =   0.0069444
        k(   20) = (   0.4163102   0.0832620  -0.0832620), wk =   0.0277778
        k(   21) = (   0.4995723   0.1665241  -0.1665241), wk =   0.0277778
        k(   22) = (   0.5828343   0.2497861  -0.2497861), wk =   0.0277778
        k(   23) = (  -0.3330482  -0.6660964   0.6660964), wk =   0.0277778
        k(   24) = (  -0.2497861  -0.5828343   0.5828343), wk =   0.0277778
        k(   25) = (  -0.1665241  -0.4995723   0.4995723), wk =   0.0277778
        k(   26) = (  -0.0832620  -0.4163102   0.4163102), wk =   0.0277778
        k(   27) = (  -0.0000000  -0.3330482   0.3330482), wk =   0.0138889
        k(   28) = (   0.4995723   0.0000000   0.0000000), wk =   0.0069444
        k(   29) = (   0.5828343   0.0832620  -0.0832620), wk =   0.0277778
        k(   30) = (   0.6660964   0.1665241  -0.1665241), wk =   0.0277778
        k(   31) = (  -0.2497861  -0.7493584   0.7493584), wk =   0.0277778
        k(   32) = (  -0.1665241  -0.6660964   0.6660964), wk =   0.0277778
        k(   33) = (  -0.0832620  -0.5828343   0.5828343), wk =   0.0277778
        k(   34) = (   0.0000000  -0.4995723   0.4995723), wk =   0.0138889
        k(   35) = (   0.6660964   0.0000000   0.0000000), wk =   0.0069444
        k(   36) = (   0.7493584   0.0832620  -0.0832620), wk =   0.0277778
        k(   37) = (  -0.1665241  -0.8326205   0.8326205), wk =   0.0277778
        k(   38) = (  -0.0832620  -0.7493584   0.7493584), wk =   0.0277778
        k(   39) = (  -0.0000000  -0.6660964   0.6660964), wk =   0.0138889
        k(   40) = (   0.8326205   0.0000000   0.0000000), wk =   0.0069444
        k(   41) = (  -0.0832620  -0.9158825   0.9158825), wk =   0.0277778
        k(   42) = (  -0.0000000  -0.8326205   0.8326205), wk =   0.0138889
        k(   43) = (  -0.9991446   0.0000000   0.0000000), wk =   0.0034722
        k(   44) = (   0.3330482   0.1665241  -0.0000000), wk =   0.0277778
        k(   45) = (   0.4163102   0.2497861  -0.0832620), wk =   0.0555556
        k(   46) = (   0.4995723   0.3330482  -0.1665241), wk =   0.0555556
        k(   47) = (  -0.4163102  -0.5828343   0.7493584), wk =   0.0555556
        k(   48) = (  -0.3330482  -0.4995723   0.6660964), wk =   0.0277778
        k(   49) = (   0.4995723   0.1665241   0.0000000), wk =   0.0277778
        k(   50) = (   0.5828343   0.2497861  -0.0832620), wk =   0.0555556
        k(   51) = (  -0.3330482  -0.6660964   0.8326205), wk =   0.0555556
        k(   52) = (  -0.2497861  -0.5828343   0.7493584), wk =   0.0555556
        k(   53) = (  -0.1665241  -0.4995723   0.6660964), wk =   0.0555556
        k(   54) = (  -0.0832620  -0.4163102   0.5828343), wk =   0.0555556
        k(   55) = (  -0.0000000  -0.3330482   0.4995723), wk =   0.0277778
        k(   56) = (   0.6660964   0.1665241   0.0000000), wk =   0.0277778
        k(   57) = (  -0.2497861  -0.7493584   0.9158825), wk =   0.0555556
        k(   58) = (  -0.1665241  -0.6660964   0.8326205), wk =   0.0555556
        k(   59) = (  -0.0832620  -0.5828343   0.7493584), wk =   0.0555556
        k(   60) = (  -0.0000000  -0.4995723   0.6660964), wk =   0.0277778
        k(   61) = (  -0.1665241  -0.8326205   0.9991446), wk =   0.0277778
        k(   62) = (  -0.0832620  -0.7493584   0.9158825), wk =   0.0555556
        k(   63) = (  -0.0000000  -0.6660964   0.8326205), wk =   0.0277778
        k(   64) = (  -0.9991446   0.1665241   0.0000000), wk =   0.0138889
        k(   65) = (  -0.3330482  -0.6660964   0.9991446), wk =   0.0277778
        k(   66) = (  -0.2497861  -0.5828343   0.9158825), wk =   0.0555556
        k(   67) = (  -0.1665241  -0.4995723   0.8326205), wk =   0.0277778
        k(   68) = (  -0.1665241  -0.6660964   0.9991446), wk =   0.0277778
        k(   69) = (  -0.0832620  -0.5828343   0.9158825), wk =   0.0555556
        k(   70) = (   0.0000000  -0.4995723   0.8326205), wk =   0.0277778
        k(   71) = (  -0.9991446   0.3330482   0.0000000), wk =   0.0138889
        k(   72) = (  -0.9991446   0.4995723   0.0000000), wk =   0.0069444

     Dense  grid:    47183 G-vectors     FFT dimensions: (  60,  60,  60)

     Estimated max dynamical RAM per process >      75.35 MB

     Estimated total dynamical RAM >     301.40 MB

     Check: negative core charge=   -0.000001

     Initial potential from superposition of free atoms

     starting charge      27.9983, renormalised to      28.0000
     Starting wfcs are   18 randomized atomic wfcs

     total cpu time spent up to now is       52.5 secs

     Self-consistent Calculation

     iteration #  1     ecut=   110.00 Ry     beta= 0.70
     Davidson diagonalization with overlap
     ethr =  1.00E-06,  avg # of iterations =  9.6

     total cpu time spent up to now is       62.4 secs

     total energy              =    -427.29984331 Ry
     estimated scf accuracy    <       0.03474376 Ry

     iteration #  2     ecut=   110.00 Ry     beta= 0.70
     Davidson diagonalization with overlap
     ethr =  1.24E-04,  avg # of iterations =  1.0

     total cpu time spent up to now is       66.0 secs

     total energy              =    -427.30083508 Ry
     estimated scf accuracy    <       0.00179388 Ry

     iteration #  3     ecut=   110.00 Ry     beta= 0.70
     Davidson diagonalization with overlap
     ethr =  6.41E-06,  avg # of iterations =  2.0

     total cpu time spent up to now is       70.1 secs

     total energy              =    -427.30093121 Ry
     estimated scf accuracy    <       0.00002472 Ry

     iteration #  4     ecut=   110.00 Ry     beta= 0.70
     Davidson diagonalization with overlap
     ethr =  8.83E-08,  avg # of iterations =  2.5

     total cpu time spent up to now is       75.2 secs

     total energy              =    -427.30093885 Ry
     estimated scf accuracy    <       0.00000270 Ry

     iteration #  5     ecut=   110.00 Ry     beta= 0.70
     Davidson diagonalization with overlap
     ethr =  9.64E-09,  avg # of iterations =  2.0

     total cpu time spent up to now is       80.1 secs

     total energy              =    -427.30093931 Ry
     estimated scf accuracy    <       0.00000006 Ry

     iteration #  6     ecut=   110.00 Ry     beta= 0.70
     Davidson diagonalization with overlap
     ethr =  1.98E-10,  avg # of iterations =  2.6

     total cpu time spent up to now is       85.2 secs

     total energy              =    -427.30093933 Ry
     estimated scf accuracy    <          4.1E-09 Ry

     iteration #  7     ecut=   110.00 Ry     beta= 0.70
     Davidson diagonalization with overlap
     ethr =  1.46E-11,  avg # of iterations =  2.4

     total cpu time spent up to now is       90.6 secs

     total energy              =    -427.30093934 Ry
     estimated scf accuracy    <          6.7E-11 Ry

     iteration #  8     ecut=   110.00 Ry     beta= 0.70
     Davidson diagonalization with overlap
     ethr =  2.41E-13,  avg # of iterations =  3.4

     total cpu time spent up to now is       95.9 secs

     total energy              =    -427.30093934 Ry
     estimated scf accuracy    <          5.7E-12 Ry

     iteration #  9     ecut=   110.00 Ry     beta= 0.70
     Davidson diagonalization with overlap
     ethr =  1.00E-13,  avg # of iterations =  1.4

     total cpu time spent up to now is       99.7 secs

     End of self-consistent calculation

          k = 0.0000 0.0000 0.0000 (  5961 PWs)   bands (ev):

   -16.2390 -16.2390 -16.2390 -16.2028 -16.2028 -15.9869 -15.9869 -15.9869
   -15.9731 -15.9731  -4.2592   8.5774   8.5774   8.5774   8.6853  11.1332

          k = 0.0833 0.0833-0.0833 (  5919 PWs)   bands (ev):

   -16.2434 -16.2434 -16.2378 -16.1967 -16.1967 -15.9939 -15.9939 -15.9883
   -15.9670 -15.9670  -4.1736   7.0620   8.4086   8.4086   9.5900  11.3583

          k = 0.1665 0.1665-0.1665 (  5907 PWs)   bands (ev):

   -16.2512 -16.2512 -16.2346 -16.1848 -16.1848 -16.0043 -16.0043 -15.9921
   -15.9587 -15.9587  -3.9199   5.4138   8.0501   8.0501   9.5698  11.8306

          k = 0.2498 0.2498-0.2498 (  5934 PWs)   bands (ev):

   -16.2576 -16.2576 -16.2302 -16.1734 -16.1734 -16.0132 -16.0132 -15.9973
   -15.9522 -15.9522  -3.5104   3.8508   7.6864   7.6864   9.2782  12.2195

          k = 0.3330 0.3330-0.3330 (  5888 PWs)   bands (ev):

   -16.2616 -16.2616 -16.2257 -16.1653 -16.1653 -16.0189 -16.0189 -16.0026
   -15.9480 -15.9480  -2.9788   2.4676   7.3997   7.3997   9.0138  12.3607

          k = 0.4163 0.4163-0.4163 (  5909 PWs)   bands (ev):

   -16.2634 -16.2634 -16.2224 -16.1611 -16.1611 -16.0215 -16.0215 -16.0065
   -15.9458 -15.9458  -2.4272   1.3958   7.2204   7.2204   8.8440  12.3472

          k =-0.4996-0.4996 0.4996 (  5900 PWs)   bands (ev):

   -16.2639 -16.2639 -16.2211 -16.1599 -16.1599 -16.0221 -16.0221 -16.0080
   -15.9452 -15.9452  -2.1483   0.9421   7.1597   7.1597   8.7862  12.3250

          k = 0.1665 0.0000 0.0000 (  5925 PWs)   bands (ev):

   -16.2439 -16.2417 -16.2417 -16.1987 -16.1905 -16.0068 -15.9828 -15.9828
   -15.9768 -15.9621  -4.1449   7.0127   8.1033   8.1033  10.1974  10.7958

          k = 0.2498 0.0833-0.0833 (  5917 PWs)   bands (ev):

   -16.2520 -16.2469 -16.2390 -16.1906 -16.1779 -16.0205 -15.9910 -15.9824
   -15.9692 -15.9556  -3.9466   5.7707   7.7001   7.7773  10.4415  10.9063

          k = 0.3330 0.1665-0.1665 (  5913 PWs)   bands (ev):

   -16.2605 -16.2535 -16.2328 -16.1795 -16.1652 -16.0315 -16.0017 -15.9880
   -15.9602 -15.9483  -3.5870   4.2856   7.3431   7.3662  10.1764  11.4562

          k = 0.4163 0.2498-0.2498 (  5915 PWs)   bands (ev):

   -16.2666 -16.2588 -16.2252 -16.1695 -16.1563 -16.0375 -16.0109 -15.9965
   -15.9531 -15.9423  -3.0900   2.8821   6.9598   7.0933   9.8827  11.8877

          k = 0.4996 0.3330-0.3330 (  5903 PWs)   bands (ev):

   -16.2701 -16.2625 -16.2181 -16.1617 -16.1530 -16.0371 -16.0185 -16.0053
   -15.9477 -15.9388  -2.5246   1.7077   6.6367   6.9733   9.6609  12.0579

          k =-0.4163-0.5828 0.5828 (  5908 PWs)   bands (ev):

   -16.2709 -16.2650 -16.2136 -16.1562 -16.1548 -16.0310 -16.0250 -16.0125
   -15.9439 -15.9382  -2.1059   1.0078   6.4280   6.9883   9.5433  12.1490

          k =-0.3330-0.4996 0.4996 (  5902 PWs)   bands (ev):

   -16.2694 -16.2665 -16.2132 -16.1595 -16.1531 -16.0299 -16.0223 -16.0154
   -15.9417 -15.9405  -2.2060   1.1654   6.3499   7.1334   9.5399  12.2843

          k =-0.2498-0.4163 0.4163 (  5906 PWs)   bands (ev):

   -16.2664 -16.2658 -16.2174 -16.1654 -16.1540 -16.0315 -16.0193 -16.0069
   -15.9457 -15.9415  -2.7139   2.0665   6.4135   7.3943   9.6483  12.4016

          k =-0.1665-0.3330 0.3330 (  5923 PWs)   bands (ev):

   -16.2640 -16.2599 -16.2246 -16.1730 -16.1605 -16.0279 -16.0161 -15.9946
   -15.9537 -15.9439  -3.2696   3.3325   6.6292   7.7438   9.8510  12.1726

          k =-0.0833-0.2498 0.2498 (  5920 PWs)   bands (ev):

   -16.2587 -16.2522 -16.2322 -16.1824 -16.1720 -16.0191 -16.0095 -15.9833
   -15.9640 -15.9491  -3.7248   4.7616   7.0147   8.1254  10.0804  11.7717

          k =-0.0000-0.1665 0.1665 (  5923 PWs)   bands (ev):

   -16.2510 -16.2446 -16.2377 -16.1921 -16.1857 -16.0070 -16.0004 -15.9786
   -15.9722 -15.9570  -4.0317   6.1431   7.6311   8.4121  10.0554  11.3888

          k = 0.3330 0.0000 0.0000 (  5914 PWs)   bands (ev):

   -16.2487 -16.2487 -16.2485 -16.1867 -16.1642 -16.0390 -15.9878 -15.9719
   -15.9719 -15.9560  -3.8036   5.4189   7.2752   7.2752  10.1543  11.3697

          k = 0.4163 0.0833-0.0833 (  5922 PWs)   bands (ev):

   -16.2596 -16.2539 -16.2403 -16.1768 -16.1495 -16.0548 -15.9983 -15.9737
   -15.9628 -15.9502  -3.4962   4.3817   6.8153   6.9079  10.1814  11.4495

          k = 0.4996 0.1665-0.1665 (  5910 PWs)   bands (ev):

   -16.2695 -16.2593 -16.2284 -16.1656 -16.1381 -16.0650 -16.0103 -15.9857
   -15.9538 -15.9401  -3.0408   3.1518   6.2739   6.6580  10.3551  11.7256

          k = 0.5828 0.2498-0.2498 (  5896 PWs)   bands (ev):

   -16.2769 -16.2638 -16.2154 -16.1552 -16.1338 -16.0668 -16.0218 -16.0001
   -15.9464 -15.9320  -2.4838   1.9957   5.7923   6.5501  10.2816  12.2209

          k =-0.3330-0.6661 0.6661 (  5908 PWs)   bands (ev):

   -16.2809 -16.2675 -16.2043 -16.1461 -16.1375 -16.0596 -16.0327 -16.0128
   -15.9408 -15.9276  -1.9729   1.1475   5.4385   6.5908  10.2095  12.3824

          k =-0.2498-0.5828 0.5828 (  5897 PWs)   bands (ev):

   -16.2811 -16.2700 -16.1984 -16.1470 -16.1395 -16.0457 -16.0418 -16.0210
   -15.9371 -15.9279  -1.8797   1.0111   5.2420   6.7745  10.2333  12.4752

          k =-0.1665-0.4996 0.4996 (  5911 PWs)   bands (ev):

   -16.2774 -16.2710 -16.2001 -16.1583 -16.1381 -16.0462 -16.0293 -16.0222
   -15.9359 -15.9331  -2.3097   1.6905   5.2298   7.0828  10.3524  12.6407

          k =-0.0833-0.4163 0.4163 (  5916 PWs)   bands (ev):

   -16.2701 -16.2696 -16.2096 -16.1677 -16.1444 -16.0429 -16.0239 -16.0063
   -15.9429 -15.9374  -2.8757   2.7537   5.4496   7.4769  10.5153  12.6554

          k =-0.0000-0.3330 0.3330 (  5931 PWs)   bands (ev):

   -16.2654 -16.2606 -16.2225 -16.1755 -16.1570 -16.0329 -16.0181 -15.9890
   -15.9561 -15.9418  -3.3691   3.8623   6.0085   7.8766  10.5460  12.1484

          k = 0.4996 0.0000 0.0000 (  5942 PWs)   bands (ev):

   -16.2576 -16.2576 -16.2459 -16.1677 -16.1317 -16.0761 -16.0053 -15.9601
   -15.9577 -15.9577  -3.2403   3.8672   6.5209   6.5209   9.5874  11.3442

          k = 0.5828 0.0833-0.0833 (  5908 PWs)   bands (ev):

   -16.2671 -16.2622 -16.2346 -16.1559 -16.1164 -16.0923 -16.0171 -15.9749
   -15.9499 -15.9436  -2.8302   2.9818   6.0231   6.2497   9.6968  11.1568

          k = 0.6661 0.1665-0.1665 (  5902 PWs)   bands (ev):

   -16.2777 -16.2665 -16.2175 -16.1436 -16.1094 -16.0981 -16.0303 -15.9938
   -15.9427 -15.9310  -2.2965   2.0141   5.3736   6.1237   9.9324  11.6553

          k =-0.2498-0.7494 0.7494 (  5902 PWs)   bands (ev):

   -16.2855 -16.2701 -16.2010 -16.1321 -16.1121 -16.0930 -16.0437 -16.0116
   -15.9370 -15.9223  -1.7362   1.1717   4.8218   6.1530   9.9929  12.8280

          k =-0.1665-0.6661 0.6661 (  5893 PWs)   bands (ev):

   -16.2890 -16.2728 -16.1904 -16.1229 -16.1216 -16.0807 -16.0555 -16.0227
   -15.9333 -15.9187  -1.4672   0.8194   4.4731   6.3340  10.1072  13.6008

          k =-0.0833-0.5828 0.5828 (  5898 PWs)   bands (ev):

   -16.2873 -16.2740 -16.1877 -16.1397 -16.1206 -16.0610 -16.0592 -16.0260
   -15.9320 -15.9213  -1.7954   1.2564   4.3921   6.6492  10.3233  13.6826

          k = 0.0000-0.4996 0.4996 (  5913 PWs)   bands (ev):

   -16.2806 -16.2731 -16.1943 -16.1574 -16.1291 -16.0556 -16.0358 -16.0223
   -15.9333 -15.9299  -2.3568   2.0360   4.6788   7.0584  10.5595  13.3881

          k = 0.6661 0.0000 0.0000 (  5882 PWs)   bands (ev):

   -16.2658 -16.2658 -16.2345 -16.1432 -16.1150 -16.0962 -16.0284 -15.9742
   -15.9440 -15.9440  -2.4642   2.3724   5.9483   5.9483   9.2300  10.5452

          k = 0.7494 0.0833-0.0833 (  5892 PWs)   bands (ev):

   -16.2735 -16.2692 -16.2199 -16.1302 -16.1297 -16.0813 -16.0420 -15.9904
   -15.9383 -15.9342  -1.9621   1.6038   5.4797   5.7902   9.4221  10.4302

          k =-0.1665-0.8326 0.8326 (  5884 PWs)   bands (ev):

   -16.2834 -16.2721 -16.2000 -16.1341 -16.1164 -16.0757 -16.0565 -16.0115
   -15.9338 -15.9233  -1.3840   0.8647   4.8049   5.7895   9.6191  11.2515

          k =-0.0833-0.7494 0.7494 (  5889 PWs)   bands (ev):

   -16.2904 -16.2741 -16.1869 -16.1208 -16.1054 -16.0865 -16.0699 -16.0248
   -15.9310 -15.9163  -0.9854   0.4263   4.2737   5.9457   9.7637  12.7060

          k =-0.0000-0.6661 0.6661 (  5902 PWs)   bands (ev):

   -16.2920 -16.2749 -16.1840 -16.1122 -16.1060 -16.0922 -16.0723 -16.0275
   -15.9304 -15.9154  -1.2484   0.7181   4.0848   6.2443  10.0175  14.3755

          k = 0.8326 0.0000 0.0000 (  5886 PWs)   bands (ev):

   -16.2715 -16.2715 -16.2146 -16.1528 -16.1150 -16.0603 -16.0556 -15.9969
   -15.9344 -15.9344  -1.4902   0.9591   5.5944   5.5944   9.1326   9.8012

          k =-0.0833-0.9159 0.9159 (  5890 PWs)   bands (ev):

   -16.2772 -16.2732 -16.1969 -16.1652 -16.1005 -16.0705 -16.0473 -16.0152
   -15.9316 -15.9281  -0.9139   0.2923   5.2053   5.5553   9.3618   9.9267

          k =-0.0000-0.8326 0.8326 (  5886 PWs)   bands (ev):

   -16.2855 -16.2741 -16.1854 -16.1539 -16.0906 -16.0820 -16.0561 -16.0269
   -15.9305 -15.9203  -0.5259  -0.0751   4.6131   5.6760   9.5090  11.0938

          k =-0.9991 0.0000 0.0000 (  5874 PWs)   bands (ev):

   -16.2735 -16.2735 -16.1868 -16.1868 -16.0851 -16.0851 -16.0263 -16.0263
   -15.9309 -15.9309  -0.3396  -0.3396   5.4750   5.4750   9.3200   9.3200

          k = 0.3330 0.1665-0.0000 (  5910 PWs)   bands (ev):

   -16.2586 -16.2521 -16.2358 -16.1829 -16.1642 -16.0354 -15.9991 -15.9774
   -15.9674 -15.9494  -3.6942   4.8572   6.8109   7.6945  10.8287  10.8944

          k = 0.4163 0.2498-0.0833 (  5923 PWs)   bands (ev):

   -16.2659 -16.2598 -16.2259 -16.1730 -16.1512 -16.0468 -16.0087 -15.9891
   -15.9553 -15.9424  -3.2863   3.6438   6.1941   7.3997  10.7031  11.4622

          k = 0.4996 0.3330-0.1665 (  5914 PWs)   bands (ev):

   -16.2723 -16.2653 -16.2146 -16.1637 -16.1428 -16.0520 -16.0166 -16.0042
   -15.9457 -15.9366  -2.7555   2.4113   5.8362   7.0633  10.4863  11.9205

          k =-0.4163-0.5828 0.7494 (  5898 PWs)   bands (ev):

   -16.2769 -16.2681 -16.2057 -16.1554 -16.1414 -16.0497 -16.0252 -16.0161
   -15.9406 -15.9322  -2.2008   1.4007   5.6511   6.8191  10.3320  12.0130

          k =-0.3330-0.4996 0.6661 (  5894 PWs)   bands (ev):

   -16.2785 -16.2688 -16.2023 -16.1500 -16.1438 -16.0443 -16.0337 -16.0191
   -15.9390 -15.9305  -1.9165   0.9599   5.5945   6.7308  10.2778  12.0053

          k = 0.4996 0.1665 0.0000 (  5921 PWs)   bands (ev):

   -16.2650 -16.2614 -16.2324 -16.1667 -16.1343 -16.0709 -16.0082 -15.9798
   -15.9531 -15.9446  -3.1384   3.5377   6.0792   6.7493  10.2681  11.4655

          k = 0.5828 0.2498-0.0833 (  5902 PWs)   bands (ev):

   -16.2739 -16.2673 -16.2176 -16.1556 -16.1230 -16.0809 -16.0200 -15.9958
   -15.9434 -15.9353  -2.6430   2.5287   5.4926   6.4669  10.5779  11.7824

          k =-0.3330-0.6661 0.8326 (  5901 PWs)   bands (ev):

   -16.2818 -16.2707 -16.2024 -16.1450 -16.1197 -16.0813 -16.0327 -16.0120
   -15.9376 -15.9266  -2.0742   1.5600   5.0797   6.2662  10.6193  12.4096

          k =-0.2498-0.5828 0.7494 (  5897 PWs)   bands (ev):

   -16.2860 -16.2728 -16.1921 -16.1371 -16.1236 -16.0734 -16.0450 -16.0222
   -15.9342 -15.9220  -1.6464   0.9388   4.8179   6.2480  10.6649  12.4107

          k =-0.1665-0.4996 0.6661 (  5897 PWs)   bands (ev):

   -16.2853 -16.2738 -16.1899 -16.1421 -16.1241 -16.0671 -16.0451 -16.0253
   -15.9330 -15.9231  -1.7633   1.1033   4.7253   6.4158  10.8000  12.3361

          k =-0.0833-0.4163 0.5828 (  5906 PWs)   bands (ev):

   -16.2799 -16.2732 -16.1971 -16.1544 -16.1263 -16.0665 -16.0267 -16.0230
   -15.9341 -15.9298  -2.2852   1.8901   4.8573   6.7304  10.9962  12.2420

          k =-0.0000-0.3330 0.4996 (  5912 PWs)   bands (ev):

   -16.2706 -16.2706 -16.2113 -16.1646 -16.1366 -16.0594 -16.0171 -16.0051
   -15.9422 -15.9368  -2.8382   2.8276   5.3149   7.1127  11.1265  11.7421

          k = 0.6661 0.1665 0.0000 (  5906 PWs)   bands (ev):

   -16.2711 -16.2700 -16.2224 -16.1435 -16.1083 -16.1010 -16.0295 -15.9879
   -15.9397 -15.9377  -2.3759   2.2139   5.5471   5.9771   9.8936  10.9523

          k =-0.2498-0.7494 0.9159 (  5898 PWs)   bands (ev):

   -16.2809 -16.2736 -16.2032 -16.1310 -16.1163 -16.0914 -16.0435 -16.0080
   -15.9338 -15.9268  -1.8161   1.4048   4.9779   5.7683  10.2412  11.4908

          k =-0.1665-0.6661 0.8326 (  5890 PWs)   bands (ev):

   -16.2884 -16.2757 -16.1870 -16.1207 -16.1119 -16.0921 -16.0579 -16.0242
   -15.9305 -15.9187  -1.2934   0.7514   4.4829   5.7713  10.3703  12.8082

          k =-0.0833-0.5828 0.7494 (  5893 PWs)   bands (ev):

   -16.2909 -16.2768 -16.1807 -16.1197 -16.1037 -16.0937 -16.0661 -16.0300
   -15.9291 -15.9164  -1.2458   0.7021   4.2212   5.9665  10.5702  13.5711

          k =-0.0000-0.4996 0.6661 (  5903 PWs)   bands (ev):

   -16.2877 -16.2763 -16.1841 -16.1379 -16.1113 -16.0799 -16.0524 -16.0283
   -15.9299 -15.9206  -1.7271   1.2632   4.3103   6.3110  10.8508  13.2224

          k =-0.1665-0.8326 0.9991 (  5892 PWs)   bands (ev):

   -16.2759 -16.2757 -16.2037 -16.1446 -16.1157 -16.0669 -16.0563 -16.0073
   -15.9305 -15.9303  -1.4254   0.9139   5.2542   5.4613   9.7606  10.3091

          k =-0.0833-0.7494 0.9159 (  5891 PWs)   bands (ev):

   -16.2848 -16.2773 -16.1832 -16.1468 -16.1023 -16.0717 -16.0625 -16.0277
   -15.9281 -15.9213  -0.8501   0.2904   4.6994   5.4145  10.0608  11.1840

          k =-0.0000-0.6661 0.8326 (  5885 PWs)   bands (ev):

   -16.2907 -16.2778 -16.1771 -16.1259 -16.0988 -16.0796 -16.0795 -16.0331
   -15.9275 -15.9158  -0.7480   0.2115   4.2523   5.6118  10.2635  12.7270

          k =-0.9991 0.1665 0.0000 (  5892 PWs)   bands (ev):

   -16.2777 -16.2777 -16.1771 -16.1771 -16.0858 -16.0858 -16.0347 -16.0347
   -15.9273 -15.9273  -0.3155  -0.3155   5.2214   5.2214   9.8964   9.8964

          k =-0.3330-0.6661 0.9991 (  5919 PWs)   bands (ev):

   -16.2791 -16.2761 -16.1994 -16.1445 -16.1092 -16.0928 -16.0329 -16.0145
   -15.9313 -15.9300  -2.1203   1.7993   4.8514   6.1112  11.3766  11.8018

          k =-0.2498-0.5828 0.9159 (  5894 PWs)   bands (ev):

   -16.2866 -16.2784 -16.1832 -16.1325 -16.1040 -16.0951 -16.0502 -16.0284
   -15.9284 -15.9209  -1.5550   1.0652   4.5016   5.7929  11.6014  12.2465

          k =-0.1665-0.4996 0.8326 (  5888 PWs)   bands (ev):

   -16.2895 -16.2790 -16.1769 -16.1260 -16.1028 -16.0945 -16.0602 -16.0330
   -15.9275 -15.9177  -1.2432   0.6865   4.3967   5.6709  11.6264  12.1985

          k =-0.1665-0.6661 0.9991 (  5897 PWs)   bands (ev):

   -16.2841 -16.2815 -16.1813 -16.1260 -16.1181 -16.0797 -16.0596 -16.0287
   -15.9249 -15.9226  -1.2469   0.7655   4.6708   5.2986  11.2142  11.5760

          k =-0.0833-0.5828 0.9159 (  5901 PWs)   bands (ev):

   -16.2894 -16.2829 -16.1652 -16.1261 -16.1067 -16.0801 -16.0729 -16.0422
   -15.9231 -15.9171  -0.7797   0.2814   4.3989   5.1484  11.5282  12.8677

          k = 0.0000-0.4996 0.8326 (  5904 PWs)   bands (ev):

   -16.2901 -16.2821 -16.1681 -16.1153 -16.1125 -16.0863 -16.0718 -16.0394
   -15.9241 -15.9166  -1.0004   0.5138   4.2806   5.3635  11.7827  13.0640

          k =-0.9991 0.3330 0.0000 (  5888 PWs)   bands (ev):

   -16.2847 -16.2847 -16.1563 -16.1563 -16.0889 -16.0889 -16.0516 -16.0516
   -15.9211 -15.9211  -0.2654  -0.2654   4.8114   4.8114  11.2843  11.2843

          k =-0.9991 0.4996 0.0000 (  5876 PWs)   bands (ev):

   -16.2877 -16.2877 -16.1432 -16.1432 -16.0932 -16.0932 -16.0602 -16.0602
   -15.9184 -15.9184  -0.2393  -0.2393   4.6361   4.6361  12.9354  12.9354

     the Fermi energy is     8.6347 ev

!    total energy              =    -427.30093934 Ry
     estimated scf accuracy    <          3.6E-14 Ry
     smearing contrib. (-TS)   =      -0.00000004 Ry
     internal energy E=F+TS    =    -427.30093929 Ry

     The total energy is F=E-TS. E is the sum of the following terms:
     one-electron contribution =    -277.41221075 Ry
     hartree contribution      =     164.81455317 Ry
     xc contribution           =    -116.64660896 Ry
     ewald contribution        =    -198.05667275 Ry

     convergence has been achieved in   9 iterations

     Forces acting on atoms (cartesian axes, Ry/au):

     atom    1 type  1   force =     0.00000000   -0.00000000    0.00000000
     atom    2 type  1   force =     0.00000000    0.00000000    0.00000000

     Total force =     0.000000     Total SCF correction =     0.000000


     Computing stress (Cartesian axis) and pressure

          total   stress  (Ry/bohr**3)                   (kbar)     P=       41.52
   0.00028226   0.00000000   0.00000000           41.52        0.00        0.00
   0.00000000   0.00028226   0.00000000            0.00       41.52        0.00
   0.00000000   0.00000000   0.00028226            0.00        0.00       41.52


     Writing all to output data dir ./Ge.save/ :
     XML data file, charge density, pseudopotentials, collected wavefunctions
 
     init_run     :      3.50s CPU      3.55s WALL (       2 calls)
     electrons    :     93.58s CPU     94.44s WALL (       2 calls)
     forces       :      0.68s CPU      0.69s WALL (       2 calls)
     stress       :      2.37s CPU      2.38s WALL (       2 calls)

     Called by init_run:
     wfcinit      :      3.14s CPU      3.17s WALL (       2 calls)
     potinit      :      0.03s CPU      0.04s WALL (       2 calls)
     hinit0       :      0.17s CPU      0.17s WALL (       2 calls)

     Called by electrons:
     c_bands      :     80.61s CPU     81.26s WALL (      19 calls)
     sum_band     :     12.21s CPU     12.37s WALL (      19 calls)
     v_of_rho     :      0.26s CPU      0.27s WALL (      20 calls)
     newd         :      0.54s CPU      0.55s WALL (      20 calls)
     mix_rho      :      0.02s CPU      0.03s WALL (      19 calls)

     Called by c_bands:
     init_us_2    :      0.75s CPU      0.78s WALL (    3168 calls)
     cegterg      :     77.04s CPU     77.47s WALL (    1368 calls)

     Called by *egterg:
     cdiaghg      :      0.99s CPU      1.00s WALL (    4988 calls)
     h_psi        :     63.67s CPU     64.04s WALL (    5204 calls)
     s_psi        :      3.29s CPU      3.30s WALL (    5204 calls)
     g_psi        :      0.09s CPU      0.09s WALL (    3692 calls)

     Called by h_psi:
     h_psi:calbec :      4.05s CPU      4.07s WALL (    5204 calls)
     vloc_psi     :     56.13s CPU     56.47s WALL (    5204 calls)
                                        0.00s GPU  (    5204 calls)
     add_vuspsi   :      3.34s CPU      3.36s WALL (    5204 calls)

     General routines
     calbec       :      7.49s CPU      7.53s WALL (    9020 calls)
     fft          :      0.24s CPU      0.24s WALL (     271 calls)
     ffts         :      0.01s CPU      0.01s WALL (      19 calls)
     fftw         :     60.98s CPU     61.42s WALL (  146944 calls)
 
     Parallel routines
 
     PWSCF        :   1m40.25s CPU   1m41.98s WALL

 
   This run was terminated on:  13:50: 5   4Mar2026            

=------------------------------------------------------------------------------=
   JOB DONE.
=------------------------------------------------------------------------------=
